LAMMPS data file generated by aa2cg.

9240 atoms
1 atom types
9240 bonds
1 bond types
9240 angles
1 angle types
9240 dihedrals
1 dihedral types

 0.000 49.847 xlo xhi
 0.000 53.361 ylo yhi
 0.000 152.880 zlo zhi

Masses

1 24.022

Atoms # molecular

1 1 1  0.000  0.000  0.000 
2 1 1  0.000  0.000  2.548 
3 1 1  0.000  0.000  5.096 
4 1 1  0.000  0.000  7.644 
5 1 1  0.000  0.000 10.192 
6 1 1  0.000  0.000 12.740 
7 1 1  0.000  0.000 15.288 
8 1 1  0.000  0.000 17.836 
9 1 1  0.000  0.000 20.384 
10 1 1  0.000  0.000 22.932 
11 1 1  0.000  0.000 25.480 
12 1 1  0.000  0.000 28.028 
13 1 1  0.000  0.000 30.576 
14 1 1  0.000  0.000 33.124 
15 1 1  0.000  0.000 35.672 
16 1 1  0.000  0.000 38.220 
17 1 1  0.000  0.000 40.768 
18 1 1  0.000  0.000 43.316 
19 1 1  0.000  0.000 45.864 
20 1 1  0.000  0.000 48.412 
21 1 1  0.000  0.000 50.960 
22 1 1  0.000  0.000 53.508 
23 1 1  0.000  0.000 56.056 
24 1 1  0.000  0.000 58.604 
25 1 1  0.000  0.000 61.152 
26 1 1  0.000  0.000 63.700 
27 1 1  0.000  0.000 66.248 
28 1 1  0.000  0.000 68.796 
29 1 1  0.000  0.000 71.344 
30 1 1  0.000  0.000 73.892 
31 1 1  0.000  0.000 76.440 
32 1 1  0.000  0.000 78.988 
33 1 1  0.000  0.000 81.536 
34 1 1  0.000  0.000 84.084 
35 1 1  0.000  0.000 86.632 
36 1 1  0.000  0.000 89.180 
37 1 1  0.000  0.000 91.728 
38 1 1  0.000  0.000 94.276 
39 1 1  0.000  0.000 96.824 
40 1 1  0.000  0.000 99.372 
41 1 1  0.000  0.000 101.920 
42 1 1  0.000  0.000 104.468 
43 1 1  0.000  0.000 107.016 
44 1 1  0.000  0.000 109.564 
45 1 1  0.000  0.000 112.112 
46 1 1  0.000  0.000 114.660 
47 1 1  0.000  0.000 117.208 
48 1 1  0.000  0.000 119.756 
49 1 1  0.000  0.000 122.304 
50 1 1  0.000  0.000 124.852 
51 1 1  0.000  0.000 127.400 
52 1 1  0.000  0.000 129.948 
53 1 1  0.000  0.000 132.496 
54 1 1  0.000  0.000 135.044 
55 1 1  0.000  0.000 137.592 
56 1 1  0.000  0.000 140.140 
57 1 1  0.000  0.000 142.688 
58 1 1  0.000  0.000 145.236 
59 1 1  0.000  0.000 147.784 
60 1 1  0.000  0.000 150.332 
61 2 1  3.561  2.425  0.000 
62 2 1  3.561  2.425  2.548 
63 2 1  3.561  2.425  5.096 
64 2 1  3.561  2.425  7.644 
65 2 1  3.561  2.425 10.192 
66 2 1  3.561  2.425 12.740 
67 2 1  3.561  2.425 15.288 
68 2 1  3.561  2.425 17.836 
69 2 1  3.561  2.425 20.384 
70 2 1  3.561  2.425 22.932 
71 2 1  3.561  2.425 25.480 
72 2 1  3.561  2.425 28.028 
73 2 1  3.561  2.425 30.576 
74 2 1  3.561  2.425 33.124 
75 2 1  3.561  2.425 35.672 
76 2 1  3.561  2.425 38.220 
77 2 1  3.561  2.425 40.768 
78 2 1  3.561  2.425 43.316 
79 2 1  3.561  2.425 45.864 
80 2 1  3.561  2.425 48.412 
81 2 1  3.561  2.425 50.960 
82 2 1  3.561  2.425 53.508 
83 2 1  3.561  2.425 56.056 
84 2 1  3.561  2.425 58.604 
85 2 1  3.561  2.425 61.152 
86 2 1  3.561  2.425 63.700 
87 2 1  3.561  2.425 66.248 
88 2 1  3.561  2.425 68.796 
89 2 1  3.561  2.425 71.344 
90 2 1  3.561  2.425 73.892 
91 2 1  3.561  2.425 76.440 
92 2 1  3.561  2.425 78.988 
93 2 1  3.561  2.425 81.536 
94 2 1  3.561  2.425 84.084 
95 2 1  3.561  2.425 86.632 
96 2 1  3.561  2.425 89.180 
97 2 1  3.561  2.425 91.728 
98 2 1  3.561  2.425 94.276 
99 2 1  3.561  2.425 96.824 
100 2 1  3.561  2.425 99.372 
101 2 1  3.561  2.425 101.920 
102 2 1  3.561  2.425 104.468 
103 2 1  3.561  2.425 107.016 
104 2 1  3.561  2.425 109.564 
105 2 1  3.561  2.425 112.112 
106 2 1  3.561  2.425 114.660 
107 2 1  3.561  2.425 117.208 
108 2 1  3.561  2.425 119.756 
109 2 1  3.561  2.425 122.304 
110 2 1  3.561  2.425 124.852 
111 2 1  3.561  2.425 127.400 
112 2 1  3.561  2.425 129.948 
113 2 1  3.561  2.425 132.496 
114 2 1  3.561  2.425 135.044 
115 2 1  3.561  2.425 137.592 
116 2 1  3.561  2.425 140.140 
117 2 1  3.561  2.425 142.688 
118 2 1  3.561  2.425 145.236 
119 2 1  3.561  2.425 147.784 
120 2 1  3.561  2.425 150.332 
121 3 1  0.000  4.851  0.000 
122 3 1  0.000  4.851  2.548 
123 3 1  0.000  4.851  5.096 
124 3 1  0.000  4.851  7.644 
125 3 1  0.000  4.851 10.192 
126 3 1  0.000  4.851 12.740 
127 3 1  0.000  4.851 15.288 
128 3 1  0.000  4.851 17.836 
129 3 1  0.000  4.851 20.384 
130 3 1  0.000  4.851 22.932 
131 3 1  0.000  4.851 25.480 
132 3 1  0.000  4.851 28.028 
133 3 1  0.000  4.851 30.576 
134 3 1  0.000  4.851 33.124 
135 3 1  0.000  4.851 35.672 
136 3 1  0.000  4.851 38.220 
137 3 1  0.000  4.851 40.768 
138 3 1  0.000  4.851 43.316 
139 3 1  0.000  4.851 45.864 
140 3 1  0.000  4.851 48.412 
141 3 1  0.000  4.851 50.960 
142 3 1  0.000  4.851 53.508 
143 3 1  0.000  4.851 56.056 
144 3 1  0.000  4.851 58.604 
145 3 1  0.000  4.851 61.152 
146 3 1  0.000  4.851 63.700 
147 3 1  0.000  4.851 66.248 
148 3 1  0.000  4.851 68.796 
149 3 1  0.000  4.851 71.344 
150 3 1  0.000  4.851 73.892 
151 3 1  0.000  4.851 76.440 
152 3 1  0.000  4.851 78.988 
153 3 1  0.000  4.851 81.536 
154 3 1  0.000  4.851 84.084 
155 3 1  0.000  4.851 86.632 
156 3 1  0.000  4.851 89.180 
157 3 1  0.000  4.851 91.728 
158 3 1  0.000  4.851 94.276 
159 3 1  0.000  4.851 96.824 
160 3 1  0.000  4.851 99.372 
161 3 1  0.000  4.851 101.920 
162 3 1  0.000  4.851 104.468 
163 3 1  0.000  4.851 107.016 
164 3 1  0.000  4.851 109.564 
165 3 1  0.000  4.851 112.112 
166 3 1  0.000  4.851 114.660 
167 3 1  0.000  4.851 117.208 
168 3 1  0.000  4.851 119.756 
169 3 1  0.000  4.851 122.304 
170 3 1  0.000  4.851 124.852 
171 3 1  0.000  4.851 127.400 
172 3 1  0.000  4.851 129.948 
173 3 1  0.000  4.851 132.496 
174 3 1  0.000  4.851 135.044 
175 3 1  0.000  4.851 137.592 
176 3 1  0.000  4.851 140.140 
177 3 1  0.000  4.851 142.688 
178 3 1  0.000  4.851 145.236 
179 3 1  0.000  4.851 147.784 
180 3 1  0.000  4.851 150.332 
181 4 1  3.561  7.277  0.000 
182 4 1  3.561  7.277  2.548 
183 4 1  3.561  7.277  5.096 
184 4 1  3.561  7.277  7.644 
185 4 1  3.561  7.277 10.192 
186 4 1  3.561  7.277 12.740 
187 4 1  3.561  7.277 15.288 
188 4 1  3.561  7.277 17.836 
189 4 1  3.561  7.277 20.384 
190 4 1  3.561  7.277 22.932 
191 4 1  3.561  7.277 25.480 
192 4 1  3.561  7.277 28.028 
193 4 1  3.561  7.277 30.576 
194 4 1  3.561  7.277 33.124 
195 4 1  3.561  7.277 35.672 
196 4 1  3.561  7.277 38.220 
197 4 1  3.561  7.277 40.768 
198 4 1  3.561  7.277 43.316 
199 4 1  3.561  7.277 45.864 
200 4 1  3.561  7.277 48.412 
201 4 1  3.561  7.277 50.960 
202 4 1  3.561  7.277 53.508 
203 4 1  3.561  7.277 56.056 
204 4 1  3.561  7.277 58.604 
205 4 1  3.561  7.277 61.152 
206 4 1  3.561  7.277 63.700 
207 4 1  3.561  7.277 66.248 
208 4 1  3.561  7.277 68.796 
209 4 1  3.561  7.277 71.344 
210 4 1  3.561  7.277 73.892 
211 4 1  3.561  7.277 76.440 
212 4 1  3.561  7.277 78.988 
213 4 1  3.561  7.277 81.536 
214 4 1  3.561  7.277 84.084 
215 4 1  3.561  7.277 86.632 
216 4 1  3.561  7.277 89.180 
217 4 1  3.561  7.277 91.728 
218 4 1  3.561  7.277 94.276 
219 4 1  3.561  7.277 96.824 
220 4 1  3.561  7.277 99.372 
221 4 1  3.561  7.277 101.920 
222 4 1  3.561  7.277 104.468 
223 4 1  3.561  7.277 107.016 
224 4 1  3.561  7.277 109.564 
225 4 1  3.561  7.277 112.112 
226 4 1  3.561  7.277 114.660 
227 4 1  3.561  7.277 117.208 
228 4 1  3.561  7.277 119.756 
229 4 1  3.561  7.277 122.304 
230 4 1  3.561  7.277 124.852 
231 4 1  3.561  7.277 127.400 
232 4 1  3.561  7.277 129.948 
233 4 1  3.561  7.277 132.496 
234 4 1  3.561  7.277 135.044 
235 4 1  3.561  7.277 137.592 
236 4 1  3.561  7.277 140.140 
237 4 1  3.561  7.277 142.688 
238 4 1  3.561  7.277 145.236 
239 4 1  3.561  7.277 147.784 
240 4 1  3.561  7.277 150.332 
241 5 1  0.000  9.702  0.000 
242 5 1  0.000  9.702  2.548 
243 5 1  0.000  9.702  5.096 
244 5 1  0.000  9.702  7.644 
245 5 1  0.000  9.702 10.192 
246 5 1  0.000  9.702 12.740 
247 5 1  0.000  9.702 15.288 
248 5 1  0.000  9.702 17.836 
249 5 1  0.000  9.702 20.384 
250 5 1  0.000  9.702 22.932 
251 5 1  0.000  9.702 25.480 
252 5 1  0.000  9.702 28.028 
253 5 1  0.000  9.702 30.576 
254 5 1  0.000  9.702 33.124 
255 5 1  0.000  9.702 35.672 
256 5 1  0.000  9.702 38.220 
257 5 1  0.000  9.702 40.768 
258 5 1  0.000  9.702 43.316 
259 5 1  0.000  9.702 45.864 
260 5 1  0.000  9.702 48.412 
261 5 1  0.000  9.702 50.960 
262 5 1  0.000  9.702 53.508 
263 5 1  0.000  9.702 56.056 
264 5 1  0.000  9.702 58.604 
265 5 1  0.000  9.702 61.152 
266 5 1  0.000  9.702 63.700 
267 5 1  0.000  9.702 66.248 
268 5 1  0.000  9.702 68.796 
269 5 1  0.000  9.702 71.344 
270 5 1  0.000  9.702 73.892 
271 5 1  0.000  9.702 76.440 
272 5 1  0.000  9.702 78.988 
273 5 1  0.000  9.702 81.536 
274 5 1  0.000  9.702 84.084 
275 5 1  0.000  9.702 86.632 
276 5 1  0.000  9.702 89.180 
277 5 1  0.000  9.702 91.728 
278 5 1  0.000  9.702 94.276 
279 5 1  0.000  9.702 96.824 
280 5 1  0.000  9.702 99.372 
281 5 1  0.000  9.702 101.920 
282 5 1  0.000  9.702 104.468 
283 5 1  0.000  9.702 107.016 
284 5 1  0.000  9.702 109.564 
285 5 1  0.000  9.702 112.112 
286 5 1  0.000  9.702 114.660 
287 5 1  0.000  9.702 117.208 
288 5 1  0.000  9.702 119.756 
289 5 1  0.000  9.702 122.304 
290 5 1  0.000  9.702 124.852 
291 5 1  0.000  9.702 127.400 
292 5 1  0.000  9.702 129.948 
293 5 1  0.000  9.702 132.496 
294 5 1  0.000  9.702 135.044 
295 5 1  0.000  9.702 137.592 
296 5 1  0.000  9.702 140.140 
297 5 1  0.000  9.702 142.688 
298 5 1  0.000  9.702 145.236 
299 5 1  0.000  9.702 147.784 
300 5 1  0.000  9.702 150.332 
301 6 1  3.561 12.128  0.000 
302 6 1  3.561 12.128  2.548 
303 6 1  3.561 12.128  5.096 
304 6 1  3.561 12.128  7.644 
305 6 1  3.561 12.128 10.192 
306 6 1  3.561 12.128 12.740 
307 6 1  3.561 12.128 15.288 
308 6 1  3.561 12.128 17.836 
309 6 1  3.561 12.128 20.384 
310 6 1  3.561 12.128 22.932 
311 6 1  3.561 12.128 25.480 
312 6 1  3.561 12.128 28.028 
313 6 1  3.561 12.128 30.576 
314 6 1  3.561 12.128 33.124 
315 6 1  3.561 12.128 35.672 
316 6 1  3.561 12.128 38.220 
317 6 1  3.561 12.128 40.768 
318 6 1  3.561 12.128 43.316 
319 6 1  3.561 12.128 45.864 
320 6 1  3.561 12.128 48.412 
321 6 1  3.561 12.128 50.960 
322 6 1  3.561 12.128 53.508 
323 6 1  3.561 12.128 56.056 
324 6 1  3.561 12.128 58.604 
325 6 1  3.561 12.128 61.152 
326 6 1  3.561 12.128 63.700 
327 6 1  3.561 12.128 66.248 
328 6 1  3.561 12.128 68.796 
329 6 1  3.561 12.128 71.344 
330 6 1  3.561 12.128 73.892 
331 6 1  3.561 12.128 76.440 
332 6 1  3.561 12.128 78.988 
333 6 1  3.561 12.128 81.536 
334 6 1  3.561 12.128 84.084 
335 6 1  3.561 12.128 86.632 
336 6 1  3.561 12.128 89.180 
337 6 1  3.561 12.128 91.728 
338 6 1  3.561 12.128 94.276 
339 6 1  3.561 12.128 96.824 
340 6 1  3.561 12.128 99.372 
341 6 1  3.561 12.128 101.920 
342 6 1  3.561 12.128 104.468 
343 6 1  3.561 12.128 107.016 
344 6 1  3.561 12.128 109.564 
345 6 1  3.561 12.128 112.112 
346 6 1  3.561 12.128 114.660 
347 6 1  3.561 12.128 117.208 
348 6 1  3.561 12.128 119.756 
349 6 1  3.561 12.128 122.304 
350 6 1  3.561 12.128 124.852 
351 6 1  3.561 12.128 127.400 
352 6 1  3.561 12.128 129.948 
353 6 1  3.561 12.128 132.496 
354 6 1  3.561 12.128 135.044 
355 6 1  3.561 12.128 137.592 
356 6 1  3.561 12.128 140.140 
357 6 1  3.561 12.128 142.688 
358 6 1  3.561 12.128 145.236 
359 6 1  3.561 12.128 147.784 
360 6 1  3.561 12.128 150.332 
361 7 1  0.000 14.553  0.000 
362 7 1  0.000 14.553  2.548 
363 7 1  0.000 14.553  5.096 
364 7 1  0.000 14.553  7.644 
365 7 1  0.000 14.553 10.192 
366 7 1  0.000 14.553 12.740 
367 7 1  0.000 14.553 15.288 
368 7 1  0.000 14.553 17.836 
369 7 1  0.000 14.553 20.384 
370 7 1  0.000 14.553 22.932 
371 7 1  0.000 14.553 25.480 
372 7 1  0.000 14.553 28.028 
373 7 1  0.000 14.553 30.576 
374 7 1  0.000 14.553 33.124 
375 7 1  0.000 14.553 35.672 
376 7 1  0.000 14.553 38.220 
377 7 1  0.000 14.553 40.768 
378 7 1  0.000 14.553 43.316 
379 7 1  0.000 14.553 45.864 
380 7 1  0.000 14.553 48.412 
381 7 1  0.000 14.553 50.960 
382 7 1  0.000 14.553 53.508 
383 7 1  0.000 14.553 56.056 
384 7 1  0.000 14.553 58.604 
385 7 1  0.000 14.553 61.152 
386 7 1  0.000 14.553 63.700 
387 7 1  0.000 14.553 66.248 
388 7 1  0.000 14.553 68.796 
389 7 1  0.000 14.553 71.344 
390 7 1  0.000 14.553 73.892 
391 7 1  0.000 14.553 76.440 
392 7 1  0.000 14.553 78.988 
393 7 1  0.000 14.553 81.536 
394 7 1  0.000 14.553 84.084 
395 7 1  0.000 14.553 86.632 
396 7 1  0.000 14.553 89.180 
397 7 1  0.000 14.553 91.728 
398 7 1  0.000 14.553 94.276 
399 7 1  0.000 14.553 96.824 
400 7 1  0.000 14.553 99.372 
401 7 1  0.000 14.553 101.920 
402 7 1  0.000 14.553 104.468 
403 7 1  0.000 14.553 107.016 
404 7 1  0.000 14.553 109.564 
405 7 1  0.000 14.553 112.112 
406 7 1  0.000 14.553 114.660 
407 7 1  0.000 14.553 117.208 
408 7 1  0.000 14.553 119.756 
409 7 1  0.000 14.553 122.304 
410 7 1  0.000 14.553 124.852 
411 7 1  0.000 14.553 127.400 
412 7 1  0.000 14.553 129.948 
413 7 1  0.000 14.553 132.496 
414 7 1  0.000 14.553 135.044 
415 7 1  0.000 14.553 137.592 
416 7 1  0.000 14.553 140.140 
417 7 1  0.000 14.553 142.688 
418 7 1  0.000 14.553 145.236 
419 7 1  0.000 14.553 147.784 
420 7 1  0.000 14.553 150.332 
421 8 1  3.561 16.979  0.000 
422 8 1  3.561 16.979  2.548 
423 8 1  3.561 16.979  5.096 
424 8 1  3.561 16.979  7.644 
425 8 1  3.561 16.979 10.192 
426 8 1  3.561 16.979 12.740 
427 8 1  3.561 16.979 15.288 
428 8 1  3.561 16.979 17.836 
429 8 1  3.561 16.979 20.384 
430 8 1  3.561 16.979 22.932 
431 8 1  3.561 16.979 25.480 
432 8 1  3.561 16.979 28.028 
433 8 1  3.561 16.979 30.576 
434 8 1  3.561 16.979 33.124 
435 8 1  3.561 16.979 35.672 
436 8 1  3.561 16.979 38.220 
437 8 1  3.561 16.979 40.768 
438 8 1  3.561 16.979 43.316 
439 8 1  3.561 16.979 45.864 
440 8 1  3.561 16.979 48.412 
441 8 1  3.561 16.979 50.960 
442 8 1  3.561 16.979 53.508 
443 8 1  3.561 16.979 56.056 
444 8 1  3.561 16.979 58.604 
445 8 1  3.561 16.979 61.152 
446 8 1  3.561 16.979 63.700 
447 8 1  3.561 16.979 66.248 
448 8 1  3.561 16.979 68.796 
449 8 1  3.561 16.979 71.344 
450 8 1  3.561 16.979 73.892 
451 8 1  3.561 16.979 76.440 
452 8 1  3.561 16.979 78.988 
453 8 1  3.561 16.979 81.536 
454 8 1  3.561 16.979 84.084 
455 8 1  3.561 16.979 86.632 
456 8 1  3.561 16.979 89.180 
457 8 1  3.561 16.979 91.728 
458 8 1  3.561 16.979 94.276 
459 8 1  3.561 16.979 96.824 
460 8 1  3.561 16.979 99.372 
461 8 1  3.561 16.979 101.920 
462 8 1  3.561 16.979 104.468 
463 8 1  3.561 16.979 107.016 
464 8 1  3.561 16.979 109.564 
465 8 1  3.561 16.979 112.112 
466 8 1  3.561 16.979 114.660 
467 8 1  3.561 16.979 117.208 
468 8 1  3.561 16.979 119.756 
469 8 1  3.561 16.979 122.304 
470 8 1  3.561 16.979 124.852 
471 8 1  3.561 16.979 127.400 
472 8 1  3.561 16.979 129.948 
473 8 1  3.561 16.979 132.496 
474 8 1  3.561 16.979 135.044 
475 8 1  3.561 16.979 137.592 
476 8 1  3.561 16.979 140.140 
477 8 1  3.561 16.979 142.688 
478 8 1  3.561 16.979 145.236 
479 8 1  3.561 16.979 147.784 
480 8 1  3.561 16.979 150.332 
481 9 1  0.000 19.404  0.000 
482 9 1  0.000 19.404  2.548 
483 9 1  0.000 19.404  5.096 
484 9 1  0.000 19.404  7.644 
485 9 1  0.000 19.404 10.192 
486 9 1  0.000 19.404 12.740 
487 9 1  0.000 19.404 15.288 
488 9 1  0.000 19.404 17.836 
489 9 1  0.000 19.404 20.384 
490 9 1  0.000 19.404 22.932 
491 9 1  0.000 19.404 25.480 
492 9 1  0.000 19.404 28.028 
493 9 1  0.000 19.404 30.576 
494 9 1  0.000 19.404 33.124 
495 9 1  0.000 19.404 35.672 
496 9 1  0.000 19.404 38.220 
497 9 1  0.000 19.404 40.768 
498 9 1  0.000 19.404 43.316 
499 9 1  0.000 19.404 45.864 
500 9 1  0.000 19.404 48.412 
501 9 1  0.000 19.404 50.960 
502 9 1  0.000 19.404 53.508 
503 9 1  0.000 19.404 56.056 
504 9 1  0.000 19.404 58.604 
505 9 1  0.000 19.404 61.152 
506 9 1  0.000 19.404 63.700 
507 9 1  0.000 19.404 66.248 
508 9 1  0.000 19.404 68.796 
509 9 1  0.000 19.404 71.344 
510 9 1  0.000 19.404 73.892 
511 9 1  0.000 19.404 76.440 
512 9 1  0.000 19.404 78.988 
513 9 1  0.000 19.404 81.536 
514 9 1  0.000 19.404 84.084 
515 9 1  0.000 19.404 86.632 
516 9 1  0.000 19.404 89.180 
517 9 1  0.000 19.404 91.728 
518 9 1  0.000 19.404 94.276 
519 9 1  0.000 19.404 96.824 
520 9 1  0.000 19.404 99.372 
521 9 1  0.000 19.404 101.920 
522 9 1  0.000 19.404 104.468 
523 9 1  0.000 19.404 107.016 
524 9 1  0.000 19.404 109.564 
525 9 1  0.000 19.404 112.112 
526 9 1  0.000 19.404 114.660 
527 9 1  0.000 19.404 117.208 
528 9 1  0.000 19.404 119.756 
529 9 1  0.000 19.404 122.304 
530 9 1  0.000 19.404 124.852 
531 9 1  0.000 19.404 127.400 
532 9 1  0.000 19.404 129.948 
533 9 1  0.000 19.404 132.496 
534 9 1  0.000 19.404 135.044 
535 9 1  0.000 19.404 137.592 
536 9 1  0.000 19.404 140.140 
537 9 1  0.000 19.404 142.688 
538 9 1  0.000 19.404 145.236 
539 9 1  0.000 19.404 147.784 
540 9 1  0.000 19.404 150.332 
541 10 1  3.561 21.829  0.000 
542 10 1  3.561 21.829  2.548 
543 10 1  3.561 21.829  5.096 
544 10 1  3.561 21.829  7.644 
545 10 1  3.561 21.829 10.192 
546 10 1  3.561 21.829 12.740 
547 10 1  3.561 21.829 15.288 
548 10 1  3.561 21.829 17.836 
549 10 1  3.561 21.829 20.384 
550 10 1  3.561 21.829 22.932 
551 10 1  3.561 21.829 25.480 
552 10 1  3.561 21.829 28.028 
553 10 1  3.561 21.829 30.576 
554 10 1  3.561 21.829 33.124 
555 10 1  3.561 21.829 35.672 
556 10 1  3.561 21.829 38.220 
557 10 1  3.561 21.829 40.768 
558 10 1  3.561 21.829 43.316 
559 10 1  3.561 21.829 45.864 
560 10 1  3.561 21.829 48.412 
561 10 1  3.561 21.829 50.960 
562 10 1  3.561 21.829 53.508 
563 10 1  3.561 21.829 56.056 
564 10 1  3.561 21.829 58.604 
565 10 1  3.561 21.829 61.152 
566 10 1  3.561 21.829 63.700 
567 10 1  3.561 21.829 66.248 
568 10 1  3.561 21.829 68.796 
569 10 1  3.561 21.829 71.344 
570 10 1  3.561 21.829 73.892 
571 10 1  3.561 21.829 76.440 
572 10 1  3.561 21.829 78.988 
573 10 1  3.561 21.829 81.536 
574 10 1  3.561 21.829 84.084 
575 10 1  3.561 21.829 86.632 
576 10 1  3.561 21.829 89.180 
577 10 1  3.561 21.829 91.728 
578 10 1  3.561 21.829 94.276 
579 10 1  3.561 21.829 96.824 
580 10 1  3.561 21.829 99.372 
581 10 1  3.561 21.829 101.920 
582 10 1  3.561 21.829 104.468 
583 10 1  3.561 21.829 107.016 
584 10 1  3.561 21.829 109.564 
585 10 1  3.561 21.829 112.112 
586 10 1  3.561 21.829 114.660 
587 10 1  3.561 21.829 117.208 
588 10 1  3.561 21.829 119.756 
589 10 1  3.561 21.829 122.304 
590 10 1  3.561 21.829 124.852 
591 10 1  3.561 21.829 127.400 
592 10 1  3.561 21.829 129.948 
593 10 1  3.561 21.829 132.496 
594 10 1  3.561 21.829 135.044 
595 10 1  3.561 21.829 137.592 
596 10 1  3.561 21.829 140.140 
597 10 1  3.561 21.829 142.688 
598 10 1  3.561 21.829 145.236 
599 10 1  3.561 21.829 147.784 
600 10 1  3.561 21.829 150.332 
601 11 1  0.000 24.255  0.000 
602 11 1  0.000 24.255  2.548 
603 11 1  0.000 24.255  5.096 
604 11 1  0.000 24.255  7.644 
605 11 1  0.000 24.255 10.192 
606 11 1  0.000 24.255 12.740 
607 11 1  0.000 24.255 15.288 
608 11 1  0.000 24.255 17.836 
609 11 1  0.000 24.255 20.384 
610 11 1  0.000 24.255 22.932 
611 11 1  0.000 24.255 25.480 
612 11 1  0.000 24.255 28.028 
613 11 1  0.000 24.255 30.576 
614 11 1  0.000 24.255 33.124 
615 11 1  0.000 24.255 35.672 
616 11 1  0.000 24.255 38.220 
617 11 1  0.000 24.255 40.768 
618 11 1  0.000 24.255 43.316 
619 11 1  0.000 24.255 45.864 
620 11 1  0.000 24.255 48.412 
621 11 1  0.000 24.255 50.960 
622 11 1  0.000 24.255 53.508 
623 11 1  0.000 24.255 56.056 
624 11 1  0.000 24.255 58.604 
625 11 1  0.000 24.255 61.152 
626 11 1  0.000 24.255 63.700 
627 11 1  0.000 24.255 66.248 
628 11 1  0.000 24.255 68.796 
629 11 1  0.000 24.255 71.344 
630 11 1  0.000 24.255 73.892 
631 11 1  0.000 24.255 76.440 
632 11 1  0.000 24.255 78.988 
633 11 1  0.000 24.255 81.536 
634 11 1  0.000 24.255 84.084 
635 11 1  0.000 24.255 86.632 
636 11 1  0.000 24.255 89.180 
637 11 1  0.000 24.255 91.728 
638 11 1  0.000 24.255 94.276 
639 11 1  0.000 24.255 96.824 
640 11 1  0.000 24.255 99.372 
641 11 1  0.000 24.255 101.920 
642 11 1  0.000 24.255 104.468 
643 11 1  0.000 24.255 107.016 
644 11 1  0.000 24.255 109.564 
645 11 1  0.000 24.255 112.112 
646 11 1  0.000 24.255 114.660 
647 11 1  0.000 24.255 117.208 
648 11 1  0.000 24.255 119.756 
649 11 1  0.000 24.255 122.304 
650 11 1  0.000 24.255 124.852 
651 11 1  0.000 24.255 127.400 
652 11 1  0.000 24.255 129.948 
653 11 1  0.000 24.255 132.496 
654 11 1  0.000 24.255 135.044 
655 11 1  0.000 24.255 137.592 
656 11 1  0.000 24.255 140.140 
657 11 1  0.000 24.255 142.688 
658 11 1  0.000 24.255 145.236 
659 11 1  0.000 24.255 147.784 
660 11 1  0.000 24.255 150.332 
661 12 1  3.561 26.681  0.000 
662 12 1  3.561 26.681  2.548 
663 12 1  3.561 26.681  5.096 
664 12 1  3.561 26.681  7.644 
665 12 1  3.561 26.681 10.192 
666 12 1  3.561 26.681 12.740 
667 12 1  3.561 26.681 15.288 
668 12 1  3.561 26.681 17.836 
669 12 1  3.561 26.681 20.384 
670 12 1  3.561 26.681 22.932 
671 12 1  3.561 26.681 25.480 
672 12 1  3.561 26.681 28.028 
673 12 1  3.561 26.681 30.576 
674 12 1  3.561 26.681 33.124 
675 12 1  3.561 26.681 35.672 
676 12 1  3.561 26.681 38.220 
677 12 1  3.561 26.681 40.768 
678 12 1  3.561 26.681 43.316 
679 12 1  3.561 26.681 45.864 
680 12 1  3.561 26.681 48.412 
681 12 1  3.561 26.681 50.960 
682 12 1  3.561 26.681 53.508 
683 12 1  3.561 26.681 56.056 
684 12 1  3.561 26.681 58.604 
685 12 1  3.561 26.681 61.152 
686 12 1  3.561 26.681 63.700 
687 12 1  3.561 26.681 66.248 
688 12 1  3.561 26.681 68.796 
689 12 1  3.561 26.681 71.344 
690 12 1  3.561 26.681 73.892 
691 12 1  3.561 26.681 76.440 
692 12 1  3.561 26.681 78.988 
693 12 1  3.561 26.681 81.536 
694 12 1  3.561 26.681 84.084 
695 12 1  3.561 26.681 86.632 
696 12 1  3.561 26.681 89.180 
697 12 1  3.561 26.681 91.728 
698 12 1  3.561 26.681 94.276 
699 12 1  3.561 26.681 96.824 
700 12 1  3.561 26.681 99.372 
701 12 1  3.561 26.681 101.920 
702 12 1  3.561 26.681 104.468 
703 12 1  3.561 26.681 107.016 
704 12 1  3.561 26.681 109.564 
705 12 1  3.561 26.681 112.112 
706 12 1  3.561 26.681 114.660 
707 12 1  3.561 26.681 117.208 
708 12 1  3.561 26.681 119.756 
709 12 1  3.561 26.681 122.304 
710 12 1  3.561 26.681 124.852 
711 12 1  3.561 26.681 127.400 
712 12 1  3.561 26.681 129.948 
713 12 1  3.561 26.681 132.496 
714 12 1  3.561 26.681 135.044 
715 12 1  3.561 26.681 137.592 
716 12 1  3.561 26.681 140.140 
717 12 1  3.561 26.681 142.688 
718 12 1  3.561 26.681 145.236 
719 12 1  3.561 26.681 147.784 
720 12 1  3.561 26.681 150.332 
721 13 1  0.000 29.106  0.000 
722 13 1  0.000 29.106  2.548 
723 13 1  0.000 29.106  5.096 
724 13 1  0.000 29.106  7.644 
725 13 1  0.000 29.106 10.192 
726 13 1  0.000 29.106 12.740 
727 13 1  0.000 29.106 15.288 
728 13 1  0.000 29.106 17.836 
729 13 1  0.000 29.106 20.384 
730 13 1  0.000 29.106 22.932 
731 13 1  0.000 29.106 25.480 
732 13 1  0.000 29.106 28.028 
733 13 1  0.000 29.106 30.576 
734 13 1  0.000 29.106 33.124 
735 13 1  0.000 29.106 35.672 
736 13 1  0.000 29.106 38.220 
737 13 1  0.000 29.106 40.768 
738 13 1  0.000 29.106 43.316 
739 13 1  0.000 29.106 45.864 
740 13 1  0.000 29.106 48.412 
741 13 1  0.000 29.106 50.960 
742 13 1  0.000 29.106 53.508 
743 13 1  0.000 29.106 56.056 
744 13 1  0.000 29.106 58.604 
745 13 1  0.000 29.106 61.152 
746 13 1  0.000 29.106 63.700 
747 13 1  0.000 29.106 66.248 
748 13 1  0.000 29.106 68.796 
749 13 1  0.000 29.106 71.344 
750 13 1  0.000 29.106 73.892 
751 13 1  0.000 29.106 76.440 
752 13 1  0.000 29.106 78.988 
753 13 1  0.000 29.106 81.536 
754 13 1  0.000 29.106 84.084 
755 13 1  0.000 29.106 86.632 
756 13 1  0.000 29.106 89.180 
757 13 1  0.000 29.106 91.728 
758 13 1  0.000 29.106 94.276 
759 13 1  0.000 29.106 96.824 
760 13 1  0.000 29.106 99.372 
761 13 1  0.000 29.106 101.920 
762 13 1  0.000 29.106 104.468 
763 13 1  0.000 29.106 107.016 
764 13 1  0.000 29.106 109.564 
765 13 1  0.000 29.106 112.112 
766 13 1  0.000 29.106 114.660 
767 13 1  0.000 29.106 117.208 
768 13 1  0.000 29.106 119.756 
769 13 1  0.000 29.106 122.304 
770 13 1  0.000 29.106 124.852 
771 13 1  0.000 29.106 127.400 
772 13 1  0.000 29.106 129.948 
773 13 1  0.000 29.106 132.496 
774 13 1  0.000 29.106 135.044 
775 13 1  0.000 29.106 137.592 
776 13 1  0.000 29.106 140.140 
777 13 1  0.000 29.106 142.688 
778 13 1  0.000 29.106 145.236 
779 13 1  0.000 29.106 147.784 
780 13 1  0.000 29.106 150.332 
781 14 1  3.561 31.532  0.000 
782 14 1  3.561 31.532  2.548 
783 14 1  3.561 31.532  5.096 
784 14 1  3.561 31.532  7.644 
785 14 1  3.561 31.532 10.192 
786 14 1  3.561 31.532 12.740 
787 14 1  3.561 31.532 15.288 
788 14 1  3.561 31.532 17.836 
789 14 1  3.561 31.532 20.384 
790 14 1  3.561 31.532 22.932 
791 14 1  3.561 31.532 25.480 
792 14 1  3.561 31.532 28.028 
793 14 1  3.561 31.532 30.576 
794 14 1  3.561 31.532 33.124 
795 14 1  3.561 31.532 35.672 
796 14 1  3.561 31.532 38.220 
797 14 1  3.561 31.532 40.768 
798 14 1  3.561 31.532 43.316 
799 14 1  3.561 31.532 45.864 
800 14 1  3.561 31.532 48.412 
801 14 1  3.561 31.532 50.960 
802 14 1  3.561 31.532 53.508 
803 14 1  3.561 31.532 56.056 
804 14 1  3.561 31.532 58.604 
805 14 1  3.561 31.532 61.152 
806 14 1  3.561 31.532 63.700 
807 14 1  3.561 31.532 66.248 
808 14 1  3.561 31.532 68.796 
809 14 1  3.561 31.532 71.344 
810 14 1  3.561 31.532 73.892 
811 14 1  3.561 31.532 76.440 
812 14 1  3.561 31.532 78.988 
813 14 1  3.561 31.532 81.536 
814 14 1  3.561 31.532 84.084 
815 14 1  3.561 31.532 86.632 
816 14 1  3.561 31.532 89.180 
817 14 1  3.561 31.532 91.728 
818 14 1  3.561 31.532 94.276 
819 14 1  3.561 31.532 96.824 
820 14 1  3.561 31.532 99.372 
821 14 1  3.561 31.532 101.920 
822 14 1  3.561 31.532 104.468 
823 14 1  3.561 31.532 107.016 
824 14 1  3.561 31.532 109.564 
825 14 1  3.561 31.532 112.112 
826 14 1  3.561 31.532 114.660 
827 14 1  3.561 31.532 117.208 
828 14 1  3.561 31.532 119.756 
829 14 1  3.561 31.532 122.304 
830 14 1  3.561 31.532 124.852 
831 14 1  3.561 31.532 127.400 
832 14 1  3.561 31.532 129.948 
833 14 1  3.561 31.532 132.496 
834 14 1  3.561 31.532 135.044 
835 14 1  3.561 31.532 137.592 
836 14 1  3.561 31.532 140.140 
837 14 1  3.561 31.532 142.688 
838 14 1  3.561 31.532 145.236 
839 14 1  3.561 31.532 147.784 
840 14 1  3.561 31.532 150.332 
841 15 1  0.000 33.957  0.000 
842 15 1  0.000 33.957  2.548 
843 15 1  0.000 33.957  5.096 
844 15 1  0.000 33.957  7.644 
845 15 1  0.000 33.957 10.192 
846 15 1  0.000 33.957 12.740 
847 15 1  0.000 33.957 15.288 
848 15 1  0.000 33.957 17.836 
849 15 1  0.000 33.957 20.384 
850 15 1  0.000 33.957 22.932 
851 15 1  0.000 33.957 25.480 
852 15 1  0.000 33.957 28.028 
853 15 1  0.000 33.957 30.576 
854 15 1  0.000 33.957 33.124 
855 15 1  0.000 33.957 35.672 
856 15 1  0.000 33.957 38.220 
857 15 1  0.000 33.957 40.768 
858 15 1  0.000 33.957 43.316 
859 15 1  0.000 33.957 45.864 
860 15 1  0.000 33.957 48.412 
861 15 1  0.000 33.957 50.960 
862 15 1  0.000 33.957 53.508 
863 15 1  0.000 33.957 56.056 
864 15 1  0.000 33.957 58.604 
865 15 1  0.000 33.957 61.152 
866 15 1  0.000 33.957 63.700 
867 15 1  0.000 33.957 66.248 
868 15 1  0.000 33.957 68.796 
869 15 1  0.000 33.957 71.344 
870 15 1  0.000 33.957 73.892 
871 15 1  0.000 33.957 76.440 
872 15 1  0.000 33.957 78.988 
873 15 1  0.000 33.957 81.536 
874 15 1  0.000 33.957 84.084 
875 15 1  0.000 33.957 86.632 
876 15 1  0.000 33.957 89.180 
877 15 1  0.000 33.957 91.728 
878 15 1  0.000 33.957 94.276 
879 15 1  0.000 33.957 96.824 
880 15 1  0.000 33.957 99.372 
881 15 1  0.000 33.957 101.920 
882 15 1  0.000 33.957 104.468 
883 15 1  0.000 33.957 107.016 
884 15 1  0.000 33.957 109.564 
885 15 1  0.000 33.957 112.112 
886 15 1  0.000 33.957 114.660 
887 15 1  0.000 33.957 117.208 
888 15 1  0.000 33.957 119.756 
889 15 1  0.000 33.957 122.304 
890 15 1  0.000 33.957 124.852 
891 15 1  0.000 33.957 127.400 
892 15 1  0.000 33.957 129.948 
893 15 1  0.000 33.957 132.496 
894 15 1  0.000 33.957 135.044 
895 15 1  0.000 33.957 137.592 
896 15 1  0.000 33.957 140.140 
897 15 1  0.000 33.957 142.688 
898 15 1  0.000 33.957 145.236 
899 15 1  0.000 33.957 147.784 
900 15 1  0.000 33.957 150.332 
901 16 1  3.561 36.383  0.000 
902 16 1  3.561 36.383  2.548 
903 16 1  3.561 36.383  5.096 
904 16 1  3.561 36.383  7.644 
905 16 1  3.561 36.383 10.192 
906 16 1  3.561 36.383 12.740 
907 16 1  3.561 36.383 15.288 
908 16 1  3.561 36.383 17.836 
909 16 1  3.561 36.383 20.384 
910 16 1  3.561 36.383 22.932 
911 16 1  3.561 36.383 25.480 
912 16 1  3.561 36.383 28.028 
913 16 1  3.561 36.383 30.576 
914 16 1  3.561 36.383 33.124 
915 16 1  3.561 36.383 35.672 
916 16 1  3.561 36.383 38.220 
917 16 1  3.561 36.383 40.768 
918 16 1  3.561 36.383 43.316 
919 16 1  3.561 36.383 45.864 
920 16 1  3.561 36.383 48.412 
921 16 1  3.561 36.383 50.960 
922 16 1  3.561 36.383 53.508 
923 16 1  3.561 36.383 56.056 
924 16 1  3.561 36.383 58.604 
925 16 1  3.561 36.383 61.152 
926 16 1  3.561 36.383 63.700 
927 16 1  3.561 36.383 66.248 
928 16 1  3.561 36.383 68.796 
929 16 1  3.561 36.383 71.344 
930 16 1  3.561 36.383 73.892 
931 16 1  3.561 36.383 76.440 
932 16 1  3.561 36.383 78.988 
933 16 1  3.561 36.383 81.536 
934 16 1  3.561 36.383 84.084 
935 16 1  3.561 36.383 86.632 
936 16 1  3.561 36.383 89.180 
937 16 1  3.561 36.383 91.728 
938 16 1  3.561 36.383 94.276 
939 16 1  3.561 36.383 96.824 
940 16 1  3.561 36.383 99.372 
941 16 1  3.561 36.383 101.920 
942 16 1  3.561 36.383 104.468 
943 16 1  3.561 36.383 107.016 
944 16 1  3.561 36.383 109.564 
945 16 1  3.561 36.383 112.112 
946 16 1  3.561 36.383 114.660 
947 16 1  3.561 36.383 117.208 
948 16 1  3.561 36.383 119.756 
949 16 1  3.561 36.383 122.304 
950 16 1  3.561 36.383 124.852 
951 16 1  3.561 36.383 127.400 
952 16 1  3.561 36.383 129.948 
953 16 1  3.561 36.383 132.496 
954 16 1  3.561 36.383 135.044 
955 16 1  3.561 36.383 137.592 
956 16 1  3.561 36.383 140.140 
957 16 1  3.561 36.383 142.688 
958 16 1  3.561 36.383 145.236 
959 16 1  3.561 36.383 147.784 
960 16 1  3.561 36.383 150.332 
961 17 1  0.000 38.808  0.000 
962 17 1  0.000 38.808  2.548 
963 17 1  0.000 38.808  5.096 
964 17 1  0.000 38.808  7.644 
965 17 1  0.000 38.808 10.192 
966 17 1  0.000 38.808 12.740 
967 17 1  0.000 38.808 15.288 
968 17 1  0.000 38.808 17.836 
969 17 1  0.000 38.808 20.384 
970 17 1  0.000 38.808 22.932 