LAMMPS data file generated by ipp-crystal-generator

10800 atoms
4 atom types
10800 bonds
2 bond types
21600 angles
3 angle types
32400 dihedrals
3 dihedral types

0.00 33.15 xlo xhi
0.00 41.56 ylo yhi
0.00 64.11 zlo zhi
0.00 -10.73 0.00 xy xz yz

Masses

1 12.0112
2 12.0112
3 12.0112
4 1.00797

Atoms # full

1 1 3 -0.1590 -0.6970 4.7607 1.2847
2 1 1 -0.0530 -0.8063 3.3082 1.7873
3 1 2 -0.1060 -1.2238 3.3290 3.2683
4 1 3 -0.1590 -2.5768 1.2239 3.1676
5 1 1 -0.0530 -1.4096 1.9284 3.8831
6 1 2 -0.1060 -1.5963 1.7746 5.4031
7 1 3 -0.1590 0.8464 1.6562 5.9365
8 1 1 -0.0530 -0.4657 2.4022 6.2378
9 1 2 -0.1060 -0.6188 2.5372 7.7629
10 1 3 -0.1590 -1.7698 4.7607 7.6956
11 1 1 -0.0530 -1.8791 3.3082 8.1982
12 1 2 -0.1060 -2.2967 3.3290 9.6791
13 1 3 -0.1590 -3.6496 1.2239 9.5785
14 1 1 -0.0530 -2.4824 1.9284 10.2939
15 1 2 -0.1060 -2.6691 1.7746 11.8139
16 1 3 -0.1590 -0.2264 1.6562 12.3473
17 1 1 -0.0530 -1.5385 2.4022 12.6486
18 1 2 -0.1060 -1.6916 2.5372 14.1738
19 1 3 -0.1590 -2.8426 4.7607 14.1064
20 1 1 -0.0530 -2.9519 3.3082 14.6091
21 1 2 -0.1060 -3.3695 3.3290 16.0900
22 1 3 -0.1590 -4.7224 1.2239 15.9893
23 1 1 -0.0530 -3.5552 1.9284 16.7048
24 1 2 -0.1060 -3.7420 1.7746 18.2248
25 1 3 -0.1590 -1.2992 1.6562 18.7582
26 1 1 -0.0530 -2.6113 2.4022 19.0595
27 1 2 -0.1060 -2.7644 2.5372 20.5846
28 1 3 -0.1590 -3.9154 4.7607 20.5173
29 1 1 -0.0530 -4.0247 3.3082 21.0199
30 1 2 -0.1060 -4.4423 3.3290 22.5008
31 1 3 -0.1590 -5.7952 1.2239 22.4002
32 1 1 -0.0530 -4.6280 1.9284 23.1156
33 1 2 -0.1060 -4.8148 1.7746 24.6356
34 1 3 -0.1590 -2.3720 1.6562 25.1690
35 1 1 -0.0530 -3.6841 2.4022 25.4703
36 1 2 -0.1060 -3.8373 2.5372 26.9955
37 1 3 -0.1590 -4.9882 4.7607 26.9282
38 1 1 -0.0530 -5.0975 3.3082 27.4308
39 1 2 -0.1060 -5.5151 3.3290 28.9117
40 1 3 -0.1590 -6.8680 1.2239 28.8110
41 1 1 -0.0530 -5.7008 1.9284 29.5265
42 1 2 -0.1060 -5.8876 1.7746 31.0465
43 1 3 -0.1590 -3.4448 1.6562 31.5799
44 1 1 -0.0530 -4.7569 2.4022 31.8812
45 1 2 -0.1060 -4.9101 2.5372 33.4063
46 1 3 -0.1590 -6.0610 4.7607 33.3390
47 1 1 -0.0530 -6.1703 3.3082 33.8416
48 1 2 -0.1060 -6.5879 3.3290 35.3225
49 1 3 -0.1590 -7.9408 1.2239 35.2219
50 1 1 -0.0530 -6.7736 1.9284 35.9373
51 1 2 -0.1060 -6.9604 1.7746 37.4574
52 1 3 -0.1590 -4.5176 1.6562 37.9907
53 1 1 -0.0530 -5.8298 2.4022 38.2920
54 1 2 -0.1060 -5.9829 2.5372 39.8172
55 1 3 -0.1590 -7.1338 4.7607 39.7499
56 1 1 -0.0530 -7.2432 3.3082 40.2525
57 1 2 -0.1060 -7.6607 3.3290 41.7334
58 1 3 -0.1590 -9.0136 1.2239 41.6327
59 1 1 -0.0530 -7.8465 1.9284 42.3482
60 1 2 -0.1060 -8.0332 1.7746 43.8682
61 1 3 -0.1590 -5.5905 1.6562 44.4016
62 1 1 -0.0530 -6.9026 2.4022 44.7029
63 1 2 -0.1060 -7.0557 2.5372 46.2280
64 1 3 -0.1590 -8.2067 4.7607 46.1607
65 1 1 -0.0530 -8.3160 3.3082 46.6633
66 1 2 -0.1060 -8.7335 3.3290 48.1442
67 1 3 -0.1590 -10.0864 1.2239 48.0436
68 1 1 -0.0530 -8.9193 1.9284 48.7591
69 1 2 -0.1060 -9.1060 1.7746 50.2791
70 1 3 -0.1590 -6.6633 1.6562 50.8124
71 1 1 -0.0530 -7.9754 2.4022 51.1138
72 1 2 -0.1060 -8.1285 2.5372 52.6389
73 1 3 -0.1590 -9.2795 4.7607 52.5716
74 1 1 -0.0530 -9.3888 3.3082 53.0742
75 1 2 -0.1060 -9.8063 3.3290 54.5551
76 1 3 -0.1590 -11.1592 1.2239 54.4545
77 1 1 -0.0530 -9.9921 1.9284 55.1699
78 1 2 -0.1060 -10.1788 1.7746 56.6899
79 1 3 -0.1590 -7.7361 1.6562 57.2233
80 1 1 -0.0530 -9.0482 2.4022 57.5246
81 1 2 -0.1060 -9.2013 2.5372 59.0498
82 1 3 -0.1590 -10.3523 4.7607 58.9824
83 1 1 -0.0530 -10.4616 3.3082 59.4851
84 1 2 -0.1060 -10.8791 3.3290 60.9660
85 1 3 -0.1590 -12.2320 1.2239 60.8653
86 1 1 -0.0530 -11.0649 1.9284 61.5808
87 1 2 -0.1060 -11.2516 1.7746 63.1008
88 1 3 -0.1590 -8.8089 1.6562 63.6342
89 1 1 -0.0530 -10.1210 2.4022 63.9355
90 1 2 -0.1060 -10.2741 2.5372 65.4606
91 2 3 -0.1590 -1.2334 -4.7607 4.4902
92 2 1 -0.0530 -1.3427 -3.3082 4.9928
93 2 2 -0.1060 -1.7602 -3.3290 6.4737
94 2 3 -0.1590 -3.1132 -1.2239 6.3730
95 2 1 -0.0530 -1.9460 -1.9284 7.0885
96 2 2 -0.1060 -2.1327 -1.7746 8.6085
97 2 3 -0.1590 0.3100 -1.6562 9.1419
98 2 1 -0.0530 -1.0021 -2.4022 9.4432
99 2 2 -0.1060 -1.1552 -2.5372 10.9683
100 2 3 -0.1590 -2.3062 -4.7607 10.9010
101 2 1 -0.0530 -2.4155 -3.3082 11.4036
102 2 2 -0.1060 -2.8331 -3.3290 12.8845
103 2 3 -0.1590 -4.1860 -1.2239 12.7839
104 2 1 -0.0530 -3.0188 -1.9284 13.4993
105 2 2 -0.1060 -3.2055 -1.7746 15.0194
106 2 3 -0.1590 -0.7628 -1.6562 15.5527
107 2 1 -0.0530 -2.0749 -2.4022 15.8540
108 2 2 -0.1060 -2.2280 -2.5372 17.3792
109 2 3 -0.1590 -3.3790 -4.7607 17.3119
110 2 1 -0.0530 -3.4883 -3.3082 17.8145
111 2 2 -0.1060 -3.9059 -3.3290 19.2954
112 2 3 -0.1590 -5.2588 -1.2239 19.1947
113 2 1 -0.0530 -4.0916 -1.9284 19.9102
114 2 2 -0.1060 -4.2784 -1.7746 21.4302
115 2 3 -0.1590 -1.8356 -1.6562 21.9636
116 2 1 -0.0530 -3.1477 -2.4022 22.2649
117 2 2 -0.1060 -3.3009 -2.5372 23.7900
118 2 3 -0.1590 -4.4518 -4.7607 23.7227
119 2 1 -0.0530 -4.5611 -3.3082 24.2253
120 2 2 -0.1060 -4.9787 -3.3290 25.7063
121 2 3 -0.1590 -6.3316 -1.2239 25.6056
122 2 1 -0.0530 -5.1644 -1.9284 26.3211
123 2 2 -0.1060 -5.3512 -1.7746 27.8411
124 2 3 -0.1590 -2.9084 -1.6562 28.3745
125 2 1 -0.0530 -4.2205 -2.4022 28.6758
126 2 2 -0.1060 -4.3737 -2.5372 30.2009
127 2 3 -0.1590 -5.5246 -4.7607 30.1336
128 2 1 -0.0530 -5.6339 -3.3082 30.6362
129 2 2 -0.1060 -6.0515 -3.3290 32.1171
130 2 3 -0.1590 -7.4044 -1.2239 32.0165
131 2 1 -0.0530 -6.2372 -1.9284 32.7319
132 2 2 -0.1060 -6.4240 -1.7746 34.2519
133 2 3 -0.1590 -3.9812 -1.6562 34.7853
134 2 1 -0.0530 -5.2934 -2.4022 35.0866
135 2 2 -0.1060 -5.4465 -2.5372 36.6118
136 2 3 -0.1590 -6.5974 -4.7607 36.5444
137 2 1 -0.0530 -6.7067 -3.3082 37.0471
138 2 2 -0.1060 -7.1243 -3.3290 38.5280
139 2 3 -0.1590 -8.4772 -1.2239 38.4273
140 2 1 -0.0530 -7.3101 -1.9284 39.1428
141 2 2 -0.1060 -7.4968 -1.7746 40.6628
142 2 3 -0.1590 -5.0540 -1.6562 41.1962
143 2 1 -0.0530 -6.3662 -2.4022 41.4975
144 2 2 -0.1060 -6.5193 -2.5372 43.0226
145 2 3 -0.1590 -7.6703 -4.7607 42.9553
146 2 1 -0.0530 -7.7796 -3.3082 43.4579
147 2 2 -0.1060 -8.1971 -3.3290 44.9388
148 2 3 -0.1590 -9.5500 -1.2239 44.8382
149 2 1 -0.0530 -8.3829 -1.9284 45.5536
150 2 2 -0.1060 -8.5696 -1.7746 47.0736
151 2 3 -0.1590 -6.1269 -1.6562 47.6070
152 2 1 -0.0530 -7.4390 -2.4022 47.9083
153 2 2 -0.1060 -7.5921 -2.5372 49.4335
154 2 3 -0.1590 -8.7431 -4.7607 49.3662
155 2 1 -0.0530 -8.8524 -3.3082 49.8688
156 2 2 -0.1060 -9.2699 -3.3290 51.3497
157 2 3 -0.1590 -10.6228 -1.2239 51.2490
158 2 1 -0.0530 -9.4557 -1.9284 51.9645
159 2 2 -0.1060 -9.6424 -1.7746 53.4845
160 2 3 -0.1590 -7.1997 -1.6562 54.0179
161 2 1 -0.0530 -8.5118 -2.4022 54.3192
162 2 2 -0.1060 -8.6649 -2.5372 55.8443
163 2 3 -0.1590 -9.8159 -4.7607 55.7770
164 2 1 -0.0530 -9.9252 -3.3082 56.2796
165 2 2 -0.1060 -10.3427 -3.3290 57.7605
166 2 3 -0.1590 -11.6956 -1.2239 57.6599
167 2 1 -0.0530 -10.5285 -1.9284 58.3753
168 2 2 -0.1060 -10.7152 -1.7746 59.8953
169 2 3 -0.1590 -8.2725 -1.6562 60.4287
170 2 1 -0.0530 -9.5846 -2.4022 60.7300
171 2 2 -0.1060 -9.7377 -2.5372 62.2552
172 2 3 -0.1590 -10.8887 -4.7607 62.1879
173 2 1 -0.0530 -10.9980 -3.3082 62.6905
174 2 2 -0.1060 -11.4155 -3.3290 64.1714
175 2 3 -0.1590 -12.7684 -1.2239 64.0707
176 2 1 -0.0530 -11.6013 -1.9284 64.7862
177 2 2 -0.1060 -11.7880 -1.7746 66.3062
178 2 3 -0.1590 -9.3453 -1.6562 66.8396
179 2 1 -0.0530 -10.6574 -2.4022 67.1409
180 2 2 -0.1060 -10.8105 -2.5372 68.6660
181 3 3 -0.1590 -4.5484 5.6293 4.4902
182 3 1 -0.0530 -4.6577 7.0818 4.9928
183 3 2 -0.1060 -5.0752 7.0610 6.4737
184 3 3 -0.1590 -6.4282 9.1661 6.3730
185 3 1 -0.0530 -5.2610 8.4616 7.0885
186 3 2 -0.1060 -5.4477 8.6154 8.6085
187 3 3 -0.1590 -3.0050 8.7338 9.1419
188 3 1 -0.0530 -4.3171 7.9878 9.4432
189 3 2 -0.1060 -4.4702 7.8528 10.9683
190 3 3 -0.1590 -5.6212 5.6293 10.9010
191 3 1 -0.0530 -5.7305 7.0818 11.4036
192 3 2 -0.1060 -6.1481 7.0610 12.8845
193 3 3 -0.1590 -7.5010 9.1661 12.7839
194 3 1 -0.0530 -6.3338 8.4616 13.4993
195 3 2 -0.1060 -6.5205 8.6154 15.0194
196 3 3 -0.1590 -4.0778 8.7338 15.5527
197 3 1 -0.0530 -5.3899 7.9878 15.8540
198 3 2 -0.1060 -5.5430 7.8528 17.3792
199 3 3 -0.1590 -6.6940 5.6293 17.3119
200 3 1 -0.0530 -6.8033 7.0818 17.8145
201 3 2 -0.1060 -7.2209 7.0610 19.2954
202 3 3 -0.1590 -8.5738 9.1661 19.1947
203 3 1 -0.0530 -7.4066 8.4616 19.9102
204 3 2 -0.1060 -7.5934 8.6154 21.4302
205 3 3 -0.1590 -5.1506 8.7338 21.9636
206 3 1 -0.0530 -6.4627 7.9878 22.2649
207 3 2 -0.1060 -6.6159 7.8528 23.7900
208 3 3 -0.1590 -7.7668 5.6293 23.7227
209 3 1 -0.0530 -7.8761 7.0818 24.2253
210 3 2 -0.1060 -8.2937 7.0610 25.7063
211 3 3 -0.1590 -9.6466 9.1661 25.6056
212 3 1 -0.0530 -8.4794 8.4616 26.3211
213 3 2 -0.1060 -8.6662 8.6154 27.8411
214 3 3 -0.1590 -6.2234 8.7338 28.3745
215 3 1 -0.0530 -7.5355 7.9878 28.6758
216 3 2 -0.1060 -7.6887 7.8528 30.2009
217 3 3 -0.1590 -8.8396 5.6293 30.1336
218 3 1 -0.0530 -8.9489 7.0818 30.6362
219 3 2 -0.1060 -9.3665 7.0610 32.1171
220 3 3 -0.1590 -10.7194 9.1661 32.0165
221 3 1 -0.0530 -9.5522 8.4616 32.7319
222 3 2 -0.1060 -9.7390 8.6154 34.2519
223 3 3 -0.1590 -7.2962 8.7338 34.7853
224 3 1 -0.0530 -8.6084 7.9878 35.0866
225 3 2 -0.1060 -8.7615 7.8528 36.6118
226 3 3 -0.1590 -9.9124 5.6293 36.5444
227 3 1 -0.0530 -10.0217 7.0818 37.0471
228 3 2 -0.1060 -10.4393 7.0610 38.5280
229 3 3 -0.1590 -11.7922 9.1661 38.4273
230 3 1 -0.0530 -10.6251 8.4616 39.1428
231 3 2 -0.1060 -10.8118 8.6154 40.6628
232 3 3 -0.1590 -8.3690 8.7338 41.1962
233 3 1 -0.0530 -9.6812 7.9878 41.4975
234 3 2 -0.1060 -9.8343 7.8528 43.0226
235 3 3 -0.1590 -10.9853 5.6293 42.9553
236 3 1 -0.0530 -11.0946 7.0818 43.4579
237 3 2 -0.1060 -11.5121 7.0610 44.9388
238 3 3 -0.1590 -12.8650 9.1661 44.8382
239 3 1 -0.0530 -11.6979 8.4616 45.5536
240 3 2 -0.1060 -11.8846 8.6154 47.0736
241 3 3 -0.1590 -9.4419 8.7338 47.6070
242 3 1 -0.0530 -10.7540 7.9878 47.9083
243 3 2 -0.1060 -10.9071 7.8528 49.4335
244 3 3 -0.1590 -12.0581 5.6293 49.3662
245 3 1 -0.0530 -12.1674 7.0818 49.8688
246 3 2 -0.1060 -12.5849 7.0610 51.3497
247 3 3 -0.1590 -13.9378 9.1661 51.2490
248 3 1 -0.0530 -12.7707 8.4616 51.9645
249 3 2 -0.1060 -12.9574 8.6154 53.4845
250 3 3 -0.1590 -10.5147 8.7338 54.0179
251 3 1 -0.0530 -11.8268 7.9878 54.3192
252 3 2 -0.1060 -11.9799 7.8528 55.8443
253 3 3 -0.1590 -13.1309 5.6293 55.7770
254 3 1 -0.0530 -13.2402 7.0818 56.2796
255 3 2 -0.1060 -13.6577 7.0610 57.7605
256 3 3 -0.1590 -15.0106 9.1661 57.6599
257 3 1 -0.0530 -13.8435 8.4616 58.3753
258 3 2 -0.1060 -14.0302 8.6154 59.8953
259 3 3 -0.1590 -11.5875 8.7338 60.4287
260 3 1 -0.0530 -12.8996 7.9878 60.7300
261 3 2 -0.1060 -13.0527 7.8528 62.2552
262 3 3 -0.1590 -14.2037 5.6293 62.1879
263 3 1 -0.0530 -14.3130 7.0818 62.6905
264 3 2 -0.1060 -14.7305 7.0610 64.1714
265 3 3 -0.1590 -16.0834 9.1661 64.0707
266 3 1 -0.0530 -14.9163 8.4616 64.7862
267 3 2 -0.1060 -15.1030 8.6154 66.3062
268 3 3 -0.1590 -12.6603 8.7338 66.8396
269 3 1 -0.0530 -13.9724 7.9878 67.1409
270 3 2 -0.1060 -14.1255 7.8528 68.6660
271 4 3 -0.1590 -4.0120 -5.6293 1.2847
272 4 1 -0.0530 -4.1213 -7.0818 1.7873
273 4 2 -0.1060 -4.5388 -7.0610 3.2683
274 4 3 -0.1590 -5.8918 -9.1661 3.1676
275 4 1 -0.0530 -4.7246 -8.4616 3.8831
276 4 2 -0.1060 -4.9113 -8.6154 5.4031
277 4 3 -0.1590 -2.4686 -8.7338 5.9365
278 4 1 -0.0530 -3.7807 -7.9878 6.2378
279 4 2 -0.1060 -3.9338 -7.8528 7.7629
280 4 3 -0.1590 -5.0848 -5.6293 7.6956
281 4 1 -0.0530 -5.1941 -7.0818 8.1982
282 4 2 -0.1060 -5.6117 -7.0610 9.6791
283 4 3 -0.1590 -6.9646 -9.1661 9.5785
284 4 1 -0.0530 -5.7974 -8.4616 10.2939
285 4 2 -0.1060 -5.9841 -8.6154 11.8139
286 4 3 -0.1590 -3.5414 -8.7338 12.3473
287 4 1 -0.0530 -4.8535 -7.9878 12.6486
288 4 2 -0.1060 -5.0066 -7.8528 14.1738
289 4 3 -0.1590 -6.1576 -5.6293 14.1064
290 4 1 -0.0530 -6.2669 -7.0818 14.6091
291 4 2 -0.1060 -6.6845 -7.0610 16.0900
292 4 3 -0.1590 -8.0374 -9.1661 15.9893
293 4 1 -0.0530 -6.8702 -8.4616 16.7048
294 4 2 -0.1060 -7.0570 -8.6154 18.2248
295 4 3 -0.1590 -4.6142 -8.7338 18.7582
296 4 1 -0.0530 -5.9263 -7.9878 19.0595
297 4 2 -0.1060 -6.0794 -7.8528 20.5846
298 4 3 -0.1590 -7.2304 -5.6293 20.5173
299 4 1 -0.0530 -7.3397 -7.0818 21.0199
300 4 2 -0.1060 -7.7573 -7.0610 22.5008
301 4 3 -0.1590 -9.1102 -9.1661 22.4002
302 4 1 -0.0530 -7.9430 -8.4616 23.1156
303 4 2 -0.1060 -8.1298 -8.6154 24.6356
304 4 3 -0.1590 -5.6870 -8.7338 25.1690
305 4 1 -0.0530 -6.9991 -7.9878 25.4703
306 4 2 -0.1060 -7.1523 -7.8528 26.9955
307 4 3 -0.1590 -8.3032 -5.6293 26.9282
308 4 1 -0.0530 -8.4125 -7.0818 27.4308
309 4 2 -0.1060 -8.8301 -7.0610 28.9117
310 4 3 -0.1590 -10.1830 -9.1661 28.8110
311 4 1 -0.0530 -9.0158 -8.4616 29.5265
312 4 2 -0.1060 -9.2026 -8.6154 31.0465
313 4 3 -0.1590 -6.7598 -8.7338 31.5799
314 4 1 -0.0530 -8.0719 -7.9878 31.8812
315 4 2 -0.1060 -8.2251 -7.8528 33.4063
316 4 3 -0.1590 -9.3760 -5.6293 33.3390
317 4 1 -0.0530 -9.4853 -7.0818 33.8416
318 4 2 -0.1060 -9.9029 -7.0610 35.3225
319 4 3 -0.1590 -11.2558 -9.1661 35.2219
320 4 1 -0.0530 -10.0886 -8.4616 35.9373
321 4 2 -0.1060 -10.2754 -8.6154 37.4574
322 4 3 -0.1590 -7.8326 -8.7338 37.9907
323 4 1 -0.0530 -9.1448 -7.9878 38.2920
324 4 2 -0.1060 -9.2979 -7.8528 39.8172
325 4 3 -0.1590 -10.4488 -5.6293 39.7499
326 4 1 -0.0530 -10.5582 -7.0818 40.2525
327 4 2 -0.1060 -10.9757 -7.0610 41.7334
328 4 3 -0.1590 -12.3286 -9.1661 41.6327
329 4 1 -0.0530 -11.1615 -8.4616 42.3482
330 4 2 -0.1060 -11.3482 -8.6154 43.8682
331 4 3 -0.1590 -8.9055 -8.7338 44.4016
332 4 1 -0.0530 -10.2176 -7.9878 44.7029
333 4 2 -0.1060 -10.3707 -7.8528 46.2280
334 4 3 -0.1590 -11.5217 -5.6293 46.1607
335 4 1 -0.0530 -11.6310 -7.0818 46.6633
336 4 2 -0.1060 -12.0485 -7.0610 48.1442
337 4 3 -0.1590 -13.4014 -9.1661 48.0436
338 4 1 -0.0530 -12.2343 -8.4616 48.7591
339 4 2 -0.1060 -12.4210 -8.6154 50.2791
340 4 3 -0.1590 -9.9783 -8.7338 50.8124
341 4 1 -0.0530 -11.2904 -7.9878 51.1138
342 4 2 -0.1060 -11.4435 -7.8528 52.6389
343 4 3 -0.1590 -12.5945 -5.6293 52.5716
344 4 1 -0.0530 -12.7038 -7.0818 53.0742
345 4 2 -0.1060 -13.1213 -7.0610 54.5551
346 4 3 -0.1590 -14.4742 -9.1661 54.4545
347 4 1 -0.0530 -13.3071 -8.4616 55.1699
348 4 2 -0.1060 -13.4938 -8.6154 56.6899
349 4 3 -0.1590 -11.0511 -8.7338 57.2233
350 4 1 -0.0530 -12.3632 -7.9878 57.5246
351 4 2 -0.1060 -12.5163 -7.8528 59.0498
352 4 3 -0.1590 -13.6673 -5.6293 58.9824
353 4 1 -0.0530 -13.7766 -7.0818 59.4851
354 4 2 -0.1060 -14.1941 -7.0610 60.9660
355 4 3 -0.1590 -15.5470 -9.1661 60.8653
356 4 1 -0.0530 -14.3799 -8.4616 61.5808
357 4 2 -0.1060 -14.5666 -8.6154 63.1008
358 4 3 -0.1590 -12.1239 -8.7338 63.6342
359 4 1 -0.0530 -13.4360 -7.9878 63.9355
360 4 2 -0.1060 -13.5891 -7.8528 65.4606
361 5 3 -0.1590 -0.6970 25.5407 1.2847
362 5 1 -0.0530 -0.8063 24.0882 1.7873
363 5 2 -0.1060 -1.2238 24.1090 3.2683
364 5 3 -0.1590 -2.5768 22.0039 3.1676
365 5 1 -0.0530 -1.4096 22.7084 3.8831
366 5 2 -0.1060 -1.5963 22.5546 5.4031
367 5 3 -0.1590 0.8464 22.4362 5.9365
368 5 1 -0.0530 -0.4657 23.1822 6.2378
369 5 2 -0.1060 -0.6188 23.3172 7.7629
370 5 3 -0.1590 -1.7698 25.5407 7.6956
371 5 1 -0.0530 -1.8791 24.0882 8.1982
372 5 2 -0.1060 -2.2967 24.1090 9.6791
373 5 3 -0.1590 -3.6496 22.0039 9.5785
374 5 1 -0.0530 -2.4824 22.7084 10.2939
375 5 2 -0.1060 -2.6691 22.5546 11.8139
376 5 3 -0.1590 -0.2264 22.4362 12.3473
377 5 1 -0.0530 -1.5385 23.1822 12.6486
378 5 2 -0.1060 -1.6916 23.3172 14.1738
379 5 3 -0.1590 -2.8426 25.5407 14.1064
380 5 1 -0.0530 -2.9519 24.0882 14.6091
381 5 2 -0.1060 -3.3695 24.1090 16.0900
382 5 3 -0.1590 -4.7224 22.0039 15.9893
383 5 1 -0.0530 -3.5552 22.7084 16.7048
384 5 2 -0.1060 -3.7420 22.5546 18.2248
385 5 3 -0.1590 -1.2992 22.4362 18.7582
386 5 1 -0.0530 -2.6113 23.1822 19.0595
387 5 2 -0.1060 -2.7644 23.3172 20.5846
388 5 3 -0.1590 -3.9154 25.5407 20.5173
389 5 1 -0.0530 -4.0247 24.0882 21.0199
390 5 2 -0.1060 -4.4423 24.1090 22.5008
391 5 3 -0.1590 -5.7952 22.0039 22.4002
392 5 1 -0.0530 -4.6280 22.7084 23.1156
393 5 2 -0.1060 -4.8148 22.5546 24.6356
394 5 3 -0.1590 -2.3720 22.4362 25.1690
395 5 1 -0.0530 -3.6841 23.1822 25.4703
396 5 2 -0.1060 -3.8373 23.3172 26.9955
397 5 3 -0.1590 -4.9882 25.5407 26.9282
398 5 1 -0.0530 -5.0975 24.0882 27.4308
399 5 2 -0.1060 -5.5151 24.1090 28.9117
400 5 3 -0.1590 -6.8680 22.0039 28.8110
401 5 1 -0.0530 -5.7008 22.7084 29.5265
402 5 2 -0.1060 -5.8876 22.5546 31.0465
403 5 3 -0.1590 -3.4448 22.4362 31.5799
404 5 1 -0.0530 -4.7569 23.1822 31.8812
405 5 2 -0.1060 -4.9101 23.3172 33.4063
406 5 3 -0.1590 -6.0610 25.5407 33.3390
407 5 1 -0.0530 -6.1703 24.0882 33.8416
408 5 2 -0.1060 -6.5879 24.1090 35.3225
409 5 3 -0.1590 -7.9408 22.0039 35.2219
410 5 1 -0.0530 -6.7736 22.7084 35.9373
411 5 2 -0.1060 -6.9604 22.5546 37.4574
412 5 3 -0.1590 -4.5176 22.4362 37.9907
413 5 1 -0.0530 -5.8298 23.1822 38.2920
414 5 2 -0.1060 -5.9829 23.3172 39.8172
415 5 3 -0.1590 -7.1338 25.5407 39.7499
416 5 1 -0.0530 -7.2432 24.0882 40.2525
417 5 2 -0.1060 -7.6607 24.1090 41.7334
418 5 3 -0.1590 -9.0136 22.0039 41.6327
419 5 1 -0.0530 -7.8465 22.7084 42.3482
420 5 2 -0.1060 -8.0332 22.5546 43.8682
421 5 3 -0.1590 -5.5905 22.4362 44.4016
422 5 1 -0.0530 -6.9026 23.1822 44.7029
423 5 2 -0.1060 -7.0557 23.3172 46.2280
424 5 3 -0.1590 -8.2067 25.5407 46.1607
425 5 1 -0.0530 -8.3160 24.0882 46.6633
426 5 2 -0.1060 -8.7335 24.1090 48.1442
427 5 3 -0.1590 -10.0864 22.0039 48.0436
428 5 1 -0.0530 -8.9193 22.7084 48.7591
429 5 2 -0.1060 -9.1060 22.5546 50.2791
430 5 3 -0.1590 -6.6633 22.4362 50.8124
431 5 1 -0.0530 -7.9754 23.1822 51.1138
432 5 2 -0.1060 -8.1285 23.3172 52.6389
433 5 3 -0.1590 -9.2795 25.5407 52.5716
434 5 1 -0.0530 -9.3888 24.0882 53.0742
435 5 2 -0.1060 -9.8063 24.1090 54.5551
436 5 3 -0.1590 -11.1592 22.0039 54.4545
437 5 1 -0.0530 -9.9921 22.7084 55.1699
438 5 2 -0.1060 -10.1788 22.5546 56.6899
439 5 3 -0.1590 -7.7361 22.4362 57.2233
440 5 1 -0.0530 -9.0482 23.1822 57.5246
441 5 2 -0.1060 -9.2013 23.3172 59.0498
442 5 3 -0.1590 -10.3523 25.5407 58.9824
443 5 1 -0.0530 -10.4616 24.0882 59.4851
444 5 2 -0.1060 -10.8791 24.1090 60.9660
445 5 3 -0.1590 -12.2320 22.0039 60.8653
446 5 1 -0.0530 -11.0649 22.7084 61.5808
447 5 2 -0.1060 -11.2516 22.5546 63.1008
448 5 3 -0.1590 -8.8089 22.4362 63.6342
449 5 1 -0.0530 -10.1210 23.1822 63.9355
450 5 2 -0.1060 -10.2741 23.3172 65.4606
451 6 3 -0.1590 -1.2334 16.0193 4.4902
452 6 1 -0.0530 -1.3427 17.4718 4.9928
453 6 2 -0.1060 -1.7602 17.4510 6.4737
454 6 3 -0.1590 -3.1132 19.5561 6.3730
455 6 1 -0.0530 -1.9460 18.8516 7.0885
456 6 2 -0.1060 -2.1327 19.0054 8.6085
457 6 3 -0.1590 0.3100 19.1238 9.1419
458 6 1 -0.0530 -1.0021 18.3778 9.4432
459 6 2 -0.1060 -1.1552 18.2428 10.9683
460 6 3 -0.1590 -2.3062 16.0193 10.9010
461 6 1 -0.0530 -2.4155 17.4718 11.4036
462 6 2 -0.1060 -2.8331 17.4510 12.8845
463 6 3 -0.1590 -4.1860 19.5561 12.7839
464 6 1 -0.0530 -3.0188 18.8516 13.4993
465 6 2 -0.1060 -3.2055 19.0054 15.0194
466 6 3 -0.1590 -0.7628 19.1238 15.5527
467 6 1 -0.0530 -2.0749 18.3778 15.8540
468 6 2 -0.1060 -2.2280 18.2428 17.3792
469 6 3 -0.1590 -3.3790 16.0193 17.3119
470 6 1 -0.0530 -3.4883 17.4718 17.8145
471 6 2 -0.1060 -3.9059 17.4510 19.2954
472 6 3 -0.1590 -5.2588 19.5561 19.1947
473 6 1 -0.0530 -4.0916 18.8516 19.9102
474 6 2 -0.1060 -4.2784 19.0054 21.4302
475 6 3 -0.1590 -1.8356 19.1238 21.9636
476 6 1 -0.0530 -3.1477 18.3778 22.2649
477 6 2 -0.1060 -3.3009 18.2428 23.7900
478 6 3 -0.1590 -4.4518 16.0193 23.7227
479 6 1 -0.0530 -4.5611 17.4718 24.2253
480 6 2 -0.1060 -4.9787 17.4510 25.7063
481 6 3 -0.1590 -6.3316 19.5561 25.6056
482 6 1 -0.0530 -5.1644 18.8516 26.3211
483 6 2 -0.1060 -5.3512 19.0054 27.8411
484 6 3 -0.1590 -2.9084 19.1238 28.3745
485 6 1 -0.0530 -4.2205 18.3778 28.6758
486 6 2 -0.1060 -4.3737 18.2428 30.2009
487 6 3 -0.1590 -5.5246 16.0193 30.1336
488 6 1 -0.0530 -5.6339 17.4718 30.6362
489 6 2 -0.1060 -6.0515 17.4510 32.1171
490 6 3 -0.1590 -7.4044 19.5561 32.0165
491 6 1 -0.0530 -6.2372 18.8516 32.7319
492 6 2 -0.1060 -6.4240 19.0054 34.2519
493 6 3 -0.1590 -3.9812 19.1238 34.7853
494 6 1 -0.0530 -5.2934 18.3778 35.0866
495 6 2 -0.1060 -5.4465 18.2428 36.6118
496 6 3 -0.1590 -6.5974 16.0193 36.5444
497 6 1 -0.0530 -6.7067 17.4718 37.0471
498 6 2 -0.1060 -7.1243 17.4510 38.5280
499 6 3 -0.1590 -8.4772 19.5561 38.4273
500 6 1 -0.0530 -7.3101 18.8516 39.1428
501 6 2 -0.1060 -7.4968 19.0054 40.6628
502 6 3 -0.1590 -5.0540 19.1238 41.1962
503 6 1 -0.0530 -6.3662 18.3778 41.4975
504 6 2 -0.1060 -6.5193 18.2428 43.0226
505 6 3 -0.1590 -7.6703 16.0193 42.9553
506 6 1 -0.0530 -7.7796 17.4718 43.4579
507 6 2 -0.1060 -8.1971 17.4510 44.9388
508 6 3 -0.1590 -9.5500 19.5561 44.8382
509 6 1 -0.0530 -8.3829 18.8516 45.5536
510 6 2 -0.1060 -8.5696 19.0054 47.0736
511 6 3 -0.1590 -6.1269 19.1238 47.6070
512 6 1 -0.0530 -7.4390 18.3778 47.9083
513 6 2 -0.1060 -7.5921 18.2428 49.4335
514 6 3 -0.1590 -8.7431 16.0193 49.3662
515 6 1 -0.0530 -8.8524 17.4718 49.8688
516 6 2 -0.1060 -9.2699 17.4510 51.3497
517 6 3 -0.1590 -10.6228 19.5561 51.2490
518 6 1 -0.0530 -9.4557 18.8516 51.9645
519 6 2 -0.1060 -9.6424 19.0054 53.4845
520 6 3 -0.1590 -7.1997 19.1238 54.0179
521 6 1 -0.0530 -8.5118 18.3778 54.3192
522 6 2 -0.1060 -8.6649 18.2428 55.8443
523 6 3 -0.1590 -9.8159 16.0193 55.7770
524 6 1 -0.0530 -9.9252 17.4718 56.2796
525 6 2 -0.1060 -10.3427 17.4510 57.7605
526 6 3 -0.1590 -11.6956 19.5561 57.6599
527 6 1 -0.0530 -10.5285 18.8516 58.3753
528 6 2 -0.1060 -10.7152 19.0054 59.8953
529 6 3 -0.1590 -8.2725 19.1238 60.4287
530 6 1 -0.0530 -9.5846 18.3778 60.7300
531 6 2 -0.1060 -9.7377 18.2428 62.2552
532 6 3 -0.1590 -10.8887 16.0193 62.1879
533 6 1 -0.0530 -10.9980 17.4718 62.6905
534 6 2 -0.1060 -11.4155 17.4510 64.1714
535 6 3 -0.1590 -12.7684 19.5561 64.0707
536 6 1 -0.0530 -11.6013 18.8516 64.7862
537 6 2 -0.1060 -11.7880 19.0054 66.3062
538 6 3 -0.1590 -9.3453 19.1238 66.8396
539 6 1 -0.0530 -10.6574 18.3778 67.1409
540 6 2 -0.1060 -10.8105 18.2428 68.6660
541 7 3 -0.1590 -4.5484 26.4093 4.4902
542 7 1 -0.0530 -4.6577 27.8618 4.9928
543 7 2 -0.1060 -5.0752 27.8410 6.4737
544 7 3 -0.1590 -6.4282 29.9461 6.3730
545 7 1 -0.0530 -5.2610 29.2416 7.0885
546 7 2 -0.1060 -5.4477 29.3954 8.6085
547 7 3 -0.1590 -3.0050 29.5138 9.1419
548 7 1 -0.0530 -4.3171 28.7678 9.4432
549 7 2 -0.1060 -4.4702 28.6328 10.9683
550 7 3 -0.1590 -5.6212 26.4093 10.9010
551 7 1 -0.0530 -5.7305 27.8618 11.4036
552 7 2 -0.1060 -6.1481 27.8410 12.8845
553 7 3 -0.1590 -7.5010 29.9461 12.7839
554 7 1 -0.0530 -6.3338 29.2416 13.4993
555 7 2 -0.1060 -6.5205 29.3954 15.0194
556 7 3 -0.1590 -4.0778 29.5138 15.5527
557 7 1 -0.0530 -5.3899 28.7678 15.8540
558 7 2 -0.1060 -5.5430 28.6328 17.3792
559 7 3 -0.1590 -6.6940 26.4093 17.3119
560 7 1 -0.0530 -6.8033 27.8618 17.8145
561 7 2 -0.1060 -7.2209 27.8410 19.2954
562 7 3 -0.1590 -8.5738 29.9461 19.1947
563 7 1 -0.0530 -7.4066 29.2416 19.9102
564 7 2 -0.1060 -7.5934 29.3954 21.4302
565 7 3 -0.1590 -5.1506 29.5138 21.9636
566 7 1 -0.0530 -6.4627 28.7678 22.2649
567 7 2 -0.1060 -6.6159 28.6328 23.7900
568 7 3 -0.1590 -7.7668 26.4093 23.7227
569 7 1 -0.0530 -7.8761 27.8618 24.2253
570 7 2 -0.1060 -8.2937 27.8410 25.7063
571 7 3 -0.1590 -9.6466 29.9461 25.6056
572 7 1 -0.0530 -8.4794 29.2416 26.3211
573 7 2 -0.1060 -8.6662 29.3954 27.8411
574 7 3 -0.1590 -6.2234 29.5138 28.3745
575 7 1 -0.0530 -7.5355 28.7678 28.6758
576 7 2 -0.1060 -7.6887 28.6328 30.2009
577 7 3 -0.1590 -8.8396 26.4093 30.1336
578 7 1 -0.0530 -8.9489 27.8618 30.6362
579 7 2 -0.1060 -9.3665 27.8410 32.1171
580 7 3 -0.1590 -10.7194 29.9461 32.0165
581 7 1 -0.0530 -9.5522 29.2416 32.7319
582 7 2 -0.1060 -9.7390 29.3954 34.2519
583 7 3 -0.1590 -7.2962 29.5138 34.7853
584 7 1 -0.0530 -8.6084 28.7678 35.0866
585 7 2 -0.1060 -8.7615 28.6328 36.6118
586 7 3 -0.1590 -9.9124 26.4093 36.5444
587 7 1 -0.0530 -10.0217 27.8618 37.0471
588 7 2 -0.1060 -10.4393 27.8410 38.5280
589 7 3 -0.1590 -11.7922 29.9461 38.4273
590 7 1 -0.0530 -10.6251 29.2416 39.1428
591 7 2 -0.1060 -10.8118 29.3954 40.6628
592 7 3 -0.1590 -8.3690 29.5138 41.1962
593 7 1 -0.0530 -9.6812 28.7678 41.4975
594 7 2 -0.1060 -9.8343 28.6328 43.0226
595 7 3 -0.1590 -10.9853 26.4093 42.9553
596 7 1 -0.0530 -11.0946 27.8618 43.4579
597 7 2 -0.1060 -11.5121 27.8410 44.9388
598 7 3 -0.1590 -12.8650 29.9461 44.8382
599 7 1 -0.0530 -11.6979 29.2416 45.5536
600 7 2 -0.1060 -11.8846 29.3954 47.0736
601 7 3 -0.1590 -9.4419 29.5138 47.6070
602 7 1 -0.0530 -10.7540 28.7678 47.9083
603 7 2 -0.1060 -10.9071 28.6328 49.4335
604 7 3 -0.1590 -12.0581 26.4093 49.3662
605 7 1 -0.0530 -12.1674 27.8618 49.8688
606 7 2 -0.1060 -12.5849 27.8410 51.3497
607 7 3 -0.1590 -13.9378 29.9461 51.2490
608 7 1 -0.0530 -12.7707 29.2416 51.9645
609 7 2 -0.1060 -12.9574 29.3954 53.4845
610 7 3 -0.1590 -10.5147 29.5138 54.0179
611 7 1 -0.0530 -11.8268 28.7678 54.3192
612 7 2 -0.1060 -11.9799 28.6328 55.8443
613 7 3 -0.1590 -13.1309 26.4093 55.7770
614 7 1 -0.0530 -13.2402 27.8618 56.2796
615 7 2 -0.1060 -13.6577 27.8410 57.7605
616 7 3 -0.1590 -15.0106 29.9461 57.6599
617 7 1 -0.0530 -13.8435 29.2416 58.3753
618 7 2 -0.1060 -14.0302 29.3954 59.8953
619 7 3 -0.1590 -11.5875 29.5138 60.4287
620 7 1 -0.0530 -12.8996 28.7678 60.7300
621 7 2 -0.1060 -13.0527 28.6328 62.2552
622 7 3 -0.1590 -14.2037 26.4093 62.1879
623 7 1 -0.0530 -14.3130 27.8618 62.6905
624 7 2 -0.1060 -14.7305 27.8410 64.1714
625 7 3 -0.1590 -16.0834 29.9461 64.0707
626 7 1 -0.0530 -14.9163 29.2416 64.7862
627 7 2 -0.1060 -15.1030 29.3954 66.3062
628 7 3 -0.1590 -12.6603 29.5138 66.8396
629 7 1 -0.0530 -13.9724 28.7678 67.1409
630 7 2 -0.1060 -14.1255 28.6328 68.6660
631 8 3 -0.1590 -4.0120 15.1507 1.2847
632 8 1 -0.0530 -4.1213 13.6982 1.7873
633 8 2 -0.1060 -4.5388 13.7190 3.2683
634 8 3 -0.1590 -5.8918 11.6139 3.1676
635 8 1 -0.0530 -4.7246 12.3184 3.8831
636 8 2 -0.1060 -4.9113 12.1646 5.4031
637 8 3 -0.1590 -2.4686 12.0462 5.9365
638 8 1 -0.0530 -3.7807 12.7922 6.2378
639 8 2 -0.1060 -3.9338 12.9272 7.7629
640 8 3 -0.1590 -5.0848 15.1507 7.6956
641 8 1 -0.0530 -5.1941 13.6982 8.1982
642 8 2 -0.1060 -5.6117 13.7190 9.6791
643 8 3 -0.1590 -6.9646 11.6139 9.5785
644 8 1 -0.0530 -5.7974 12.3184 10.2939
645 8 2 -0.1060 -5.9841 12.1646 11.8139
646 8 3 -0.1590 -3.5414 12.0462 12.3473
647 8 1 -0.0530 -4.8535 12.7922 12.6486
648 8 2 -0.1060 -5.0066 12.9272 14.1738
649 8 3 -0.1590 -6.1576 15.1507 14.1064
650 8 1 -0.0530 -6.2669 13.6982 14.6091
651 8 2 -0.1060 -6.6845 13.7190 16.0900
652 8 3 -0.1590 -8.0374 11.6139 15.9893
653 8 1 -0.0530 -6.8702 12.3184 16.7048
654 8 2 -0.1060 -7.0570 12.1646 18.2248
655 8 3 -0.1590 -4.6142 12.0462 18.7582
656 8 1 -0.0530 -5.9263 12.7922 19.0595
657 8 2 -0.1060 -6.0794 12.9272 20.5846
658 8 3 -0.1590 -7.2304 15.1507 20.5173
659 8 1 -0.0530 -7.3397 13.6982 21.0199
660 8 2 -0.1060 -7.7573 13.7190 22.5008
661 8 3 -0.1590 -9.1102 11.6139 22.4002
662 8 1 -0.0530 -7.9430 12.3184 23.1156
663 8 2 -0.1060 -8.1298 12.1646 24.6356
664 8 3 -0.1590 -5.6870 12.0462 25.1690
665 8 1 -0.0530 -6.9991 12.7922 25.4703
666 8 2 -0.1060 -7.1523 12.9272 26.9955
667 8 3 -0.1590 -8.3032 15.1507 26.9282
668 8 1 -0.0530 -8.4125 13.6982 27.4308
669 8 2 -0.1060 -8.8301 13.7190 28.9117
670 8 3 -0.1590 -10.1830 11.6139 28.8110
671 8 1 -0.0530 -9.0158 12.3184 29.5265
672 8 2 -0.1060 -9.2026 12.1646 31.0465
673 8 3 -0.1590 -6.7598 12.0462 31.5799
674 8 1 -0.0530 -8.0719 12.7922 31.8812
675 8 2 -0.1060 -8.2251 12.9272 33.4063
676 8 3 -0.1590 -9.3760 15.1507 33.3390
677 8 1 -0.0530 -9.4853 13.6982 33.8416
678 8 2 -0.1060 -9.9029 13.7190 35.3225
679 8 3 -0.1590 -11.2558 11.6139 35.2219
680 8 1 -0.0530 -10.0886 12.3184 35.9373
681 8 2 -0.1060 -10.2754 12.1646 37.4574
682 8 3 -0.1590 -7.8326 12.0462 37.9907
683 8 1 -0.0530 -9.1448 12.7922 38.2920
684 8 2 -0.1060 -9.2979 12.9272 39.8172
685 8 3 -0.1590 -10.4488 15.1507 39.7499
686 8 1 -0.0530 -10.5582 13.6982 40.2525
687 8 2 -0.1060 -10.9757 13.7190 41.7334
688 8 3 -0.1590 -12.3286 11.6139 41.6327
689 8 1 -0.0530 -11.1615 12.3184 42.3482
690 8 2 -0.1060 -11.3482 12.1646 43.8682
691 8 3 -0.1590 -8.9055 12.0462 44.4016
692 8 1 -0.0530 -10.2176 12.7922 44.7029
693 8 2 -0.1060 -10.3707 12.9272 46.2280
694 8 3 -0.1590 -11.5217 15.1507 46.1607
695 8 1 -0.0530 -11.6310 13.6982 46.6633
696 8 2 -0.1060 -12.0485 13.7190 48.1442
697 8 3 -0.1590 -13.4014 11.6139 48.0436
698 8 1 -0.0530 -12.2343 12.3184 48.7591
699 8 2 -0.1060 -12.4210 12.1646 50.2791
700 8 3 -0.1590 -9.9783 12.0462 50.8124
701 8 1 -0.0530 -11.2904 12.7922 51.1138
702 8 2 -0.1060 -11.4435 12.9272 52.6389
703 8 3 -0.1590 -12.5945 15.1507 52.5716
704 8 1 -0.0530 -12.7038 13.6982 53.0742
705 8 2 -0.1060 -13.1213 13.7190 54.5551
706 8 3 -0.1590 -14.4742 11.6139 54.4545
707 8 1 -0.0530 -13.3071 12.3184 55.1699
708 8 2 -0.1060 -13.4938 12.1646 56.6899
709 8 3 -0.1590 -11.0511 12.0462 57.2233
710 8 1 -0.0530 -12.3632 12.7922 57.5246
711 8 2 -0.1060 -12.5163 12.9272 59.0498
712 8 3 -0.1590 -13.6673 15.1507 58.9824
713 8 1 -0.0530 -13.7766 13.6982 59.4851
714 8 2 -0.1060 -14.1941 13.7190 60.9660
715 8 3 -0.1590 -15.5470 11.6139 60.8653
716 8 1 -0.0530 -14.3799 12.3184 61.5808
717 8 2 -0.1060 -14.5666 12.1646 63.1008
718 8 3 -0.1590 -12.1239 12.0462 63.6342
719 8 1 -0.0530 -13.4360 12.7922 63.9355
720 8 2 -0.1060 -13.5891 12.9272 65.4606
721 9 3 -0.1590 5.9330 4.7607 1.2847
722 9 1 -0.0530 5.8237 3.3082 1.7873
723 9 2 -0.1060 5.4062 3.3290 3.2683
724 9 3 -0.1590 4.0532 1.2239 3.1676
725 9 1 -0.0530 5.2204 1.9284 3.8831
726 9 2 -0.1060 5.0337 1.7746 5.4031
727 9 3 -0.1590 7.4764 1.6562 5.9365
728 9 1 -0.0530 6.1643 2.4022 6.2378
729 9 2 -0.1060 6.0112 2.5372 7.7629
730 9 3 -0.1590 4.8602 4.7607 7.6956
731 9 1 -0.0530 4.7509 3.3082 8.1982
732 9 2 -0.1060 4.3333 3.3290 9.6791
733 9 3 -0.1590 2.9804 1.2239 9.5785
734 9 1 -0.0530 4.1476 1.9284 10.2939
735 9 2 -0.1060 3.9609 1.7746 11.8139
736 9 3 -0.1590 6.4036 1.6562 12.3473
737 9 1 -0.0530 5.0915 2.4022 12.6486
738 9 2 -0.1060 4.9384 2.5372 14.1738
739 9 3 -0.1590 3.7874 4.7607 14.1064
740 9 1 -0.0530 3.6781 3.3082 14.6091
741 9 2 -0.1060 3.2605 3.3290 16.0900
742 9 3 -0.1590 1.9076 1.2239 15.9893
743 9 1 -0.0530 3.0748 1.9284 16.7048
744 9 2 -0.1060 2.8880 1.7746 18.2248
745 9 3 -0.1590 5.3308 1.6562 18.7582
746 9 1 -0.0530 4.0187 2.4022 19.0595
747 9 2 -0.1060 3.8656 2.5372 20.5846
748 9 3 -0.1590 2.7146 4.7607 20.5173