ITEM: TIMESTEP
0
ITEM: NUMBER OF ATOMS
10800
ITEM: BOX BOUNDS xy xz yz pp pp pp
-1.0769724903657133e+01 3.3174114274880964e+01 0.0000000000000000e+00
-3.0231953785239796e-02 4.1590231953743292e+01 -1.0745610628691677e+01
-4.6635480191532963e-02 6.4156635480011914e+01 0.0000000000000000e+00
ITEM: ATOMS id mol type x y z
5401 11 4 3.86306 5.18005 4.66188
1447 17 3 13.6876 1.60441 6.128
7743 24 4 9.5305 15.5001 2.28141
8289 27 4 12.5803 7.91631 6.75242
6301 16 4 2.33432 15.723 2.09701
9190 32 4 15.2691 11.6094 3.66013
7760 24 4 8.87595 15.5499 8.04285
6480 16 4 3.14028 11.6498 1.3051
721 9 3 5.75838 4.57994 1.29989
722 9 1 5.71764 3.10164 1.68417
723 9 2 5.58584 2.98478 3.19526
5216 9 4 9.51235 2.17605 0.0512095
725 9 1 5.2128 1.63047 3.72644
726 9 2 5.05853 1.67511 5.24694
6302 16 4 3.92715 15.0872 1.91179
728 9 1 6.2026 2.37601 5.99109
729 9 2 5.97768 2.42408 7.53902
1894 22 3 9.79491 19.4394 6.68006
731 9 1 4.98112 3.41387 8.06577
810 9 2 6.9593 2.35677 1.21417
901 11 3 2.77247 5.28569 4.40657
902 11 1 2.26651 6.63138 4.86719
903 11 2 2.02465 6.64868 6.47583
6308 16 4 -0.278318 12.4639 3.14704
905 11 1 1.5201 7.99176 7.0255
8828 30 4 15.4989 18.0709 6.23865
1258 14 3 7.57062 19.3242 2.53393
5948 14 4 2.39796 18.65 6.82187
1626 19 2 7.85163 8.18506 8.72951
987 11 2 2.39684 8.27004 2.16548
988 11 3 4.7853 8.62296 2.77635
989 11 1 3.58965 7.72782 2.98149
990 11 2 3.31491 7.64792 4.49546
1171 14 3 5.61807 16.0014 4.71643
1172 14 1 5.1131 17.476 4.95348
1173 14 2 5.01449 17.5429 6.46455
2880 32 2 16.23 12.6734 1.24862
1175 14 1 4.50484 18.919 6.95183
5414 11 4 4.2002 8.68153 8.23189
2346 27 2 14.4036 8.34841 8.55183
2345 27 1 14.5824 8.50187 7.06745
5412 11 4 0.521705 7.60821 8.8229
1257 14 2 5.26225 18.6366 1.99037
1354 16 3 0.413299 11.6012 3.15143
1259 14 1 6.44961 18.3729 2.91698
1260 14 2 6.07515 18.5248 4.40013
1351 16 3 2.92196 15.0017 1.5645
1352 16 1 2.42933 13.5945 1.73619
1353 16 2 2.13072 13.5102 3.26726
7388 22 4 9.56486 19.4839 5.58682
1355 16 1 1.70877 12.1315 3.83353
1356 16 2 1.48409 12.2394 5.37022
1357 16 3 4.02006 11.8235 5.88163
1358 16 1 2.77355 12.6676 6.12663
1359 16 2 2.59013 12.701 7.60181
7551 22 4 9.6388 18.5069 0.335737
1361 16 1 1.3802 13.4749 8.13828
1440 16 2 3.50188 12.669 1.21625
1441 17 3 12.8354 5.04696 1.45785
1442 17 1 12.327 3.63829 1.804
1443 17 2 12.2722 3.37938 3.31086
7390 22 4 12.011 19.685 6.7279
1445 17 1 11.5895 2.09295 3.79762
1446 17 2 11.4057 2.22202 5.34012
1450 17 3 11.4748 4.76918 8.03942
1448 17 1 12.5796 2.64066 6.26978
1449 17 2 12.0447 2.46949 7.66476
1705 19 3 7.40479 8.40773 -0.00979056
1451 17 1 10.9731 3.38693 8.22158
1530 17 2 13.2685 2.50384 1.30245
1621 19 3 9.27603 5.70265 4.57868
1622 19 1 8.78012 7.09332 5.00432
1623 19 2 8.68518 7.15746 6.51078
1624 19 3 6.5804 8.78331 6.76285
1625 19 1 7.92373 8.4158 7.20941
4677 6 4 0.99542 20.2712 2.98265
1896 22 2 11.2145 18.7961 8.56976
6321 16 4 0.859123 15.0042 6.63705
9199 32 4 14.7652 16.1974 8.60264
1707 19 2 8.74218 8.2451 2.05846
1708 19 3 10.9308 9.22743 2.5731
1709 19 1 10.032 8.07471 2.89659
1710 19 2 9.73027 8.20621 4.41471
1891 22 3 11.5659 15.6581 4.92499
1892 22 1 11.5716 17.1802 5.06442
1893 22 2 11.5656 17.5017 6.53317
4676 6 4 1.58429 19.1888 1.68275
1895 22 1 11.2173 18.9507 7.02333
6494 17 4 13.407 0.63522 6.56036
6495 17 4 13.8711 1.42972 5.07018
7759 24 4 7.07348 15.5898 8.07539
5055 9 4 7.67734 1.88304 4.63687
1977 22 2 11.9175 18.574 2.30739
4678 6 4 0.272261 17.3212 2.40341
1979 22 1 13.0063 17.9267 3.08474
1980 22 2 12.7502 18.0612 4.52367
2071 24 3 8.91122 15.0314 1.56121
2072 24 1 8.69978 13.6127 1.76177
2073 24 2 8.69439 13.5085 3.30737
2074 24 3 7.17324 11.4438 3.39562
2075 24 1 8.51281 12.0999 3.85536
2076 24 2 8.37139 12.0566 5.44768
2077 24 3 10.7129 11.5834 6.35425
2078 24 1 9.53362 12.5499 6.32823
2079 24 2 9.14191 12.66 7.78455
8453 27 4 14.817 8.65152 2.68734
6482 17 4 13.7263 5.17022 2.10844
2160 24 2 9.88168 12.9293 1.16249
4503 6 4 0.0959226 15.5641 4.61887
724 9 3 3.8446 1.12623 3.10807
540 6 2 -0.229718 18.1646 4.3334
2344 27 3 13.2751 8.74873 6.4739
6306 16 4 1.25445 14.1603 3.4964
6489 17 4 9.65382 2.77622 2.88181
7751 24 4 7.49129 12.7406 5.616
5042 9 4 4.7742 4.99267 1.51763
8285 27 4 14.4622 6.44153 6.793
6655 17 4 15.672 1.81448 0.138286
6303 16 4 2.99051 15.4457 0.583796
6499 17 4 12.4756 4.90668 8.4078
2794 32 3 13.2453 11.7771 3.09445
1360 16 3 1.35058 14.9302 7.60678
2342 27 1 15.3555 7.04165 4.98969
7757 24 4 8.83509 11.6819 8.26304
4510 6 4 -0.930147 19.5485 6.80389
5407 11 4 -0.0892295 8.36315 5.57874
5043 9 4 6.45233 5.16418 1.96692
7556 22 4 14.1723 19.6849 2.68358
8287 27 4 12.918 9.69952 6.82106
8454 27 4 14.8226 6.99472 2.29385
7742 24 4 7.90757 15.5615 1.64544
457 6 3 0.037374 19.5636 9.08071
9186 32 4 14.0423 14.4244 3.1636
5956 14 4 5.91982 17.5001 8.74941
7010 19 4 6.77641 7.4693 0.106632
5408 11 4 -0.714602 7.58523 7.10292
6481 17 4 12.1686 5.80021 1.7962
2801 32 1 14.4658 13.9529 8.21292
5049 9 4 3.25369 2.01882 3.0333
8281 27 4 15.0615 4.93027 5.32732
4506 6 4 -0.826378 16.8511 6.91957
6853 19 4 10.5352 9.12369 8.51612
1 1 3 -0.207927 5.30657 1.51249
1254 14 2 5.98961 17.257 -0.0133594
7761 24 4 8.09108 15.1522 6.58456
6319 16 4 0.802038 15.5271 8.41623
7741 24 4 9.32234 15.2627 0.531431
7554 22 4 10.9666 18.0337 2.48338
5572 11 4 3.12819 9.33778 0.399664
2080 24 3 7.97921 15.0737 7.65645
7750 24 4 9.46486 11.5837 3.53607
9182 32 4 16.25 15.6342 0.4623
5950 14 4 5.17574 19.7392 6.72312
1976 22 1 11.9033 18.6398 0.728307
5047 9 4 3.93109 0.821877 2.06022
6488 17 4 9.73032 1.19481 3.86116
6487 17 4 10.4702 1.23266 2.21529
5044 9 4 4.8092 2.64392 1.17855
5045 9 4 6.54891 3.42924 3.58408
5046 9 4 4.77878 3.67563 3.51104
5058 9 4 6.93496 2.63409 8.0079
730 9 3 5.37097 4.84165 7.73925
3613 1 4 1.77809 2.34639 5.7461
6483 17 4 13.1789 5.15951 0.362287
5051 9 4 4.1134 2.26074 5.39499
3605 1 4 -0.217964 3.89107 3.61564
1176 14 2 4.34603 18.9289 8.50761
9 1 2 -0.818132 2.83698 7.3866
7758 24 4 10.128 12.8153 8.3495
5056 9 4 6.24326 3.465 5.61781
3779 1 4 1.37553 3.46579 1.79768
3615 1 4 0.749764 1.15909 4.91238
2343 27 2 15.1903 7.20249 6.50511
5403 11 4 2.80424 5.27468 3.31083
4515 6 4 -0.420284 20.5759 9.07999
5062 9 4 4.0029 3.22122 7.72397
6501 17 4 10.7065 5.56237 8.46453
5954 14 4 7.02929 19.8188 8.04455
5219 9 4 7.75213 2.72493 1.8977
5220 9 4 6.75056 1.23991 1.46192
7755 24 4 11.4945 11.7275 7.10156
5052 9 4 4.99159 0.649959 5.54867
1444 17 3 10.2384 1.83871 3.16722
5404 11 4 1.30325 6.74712 4.29209
5405 11 4 1.30805 5.84537 6.80472
5406 11 4 2.94949 6.36635 7.02734
5402 11 4 2.09844 4.38667 4.79687
8 1 1 -0.529109 2.77374 5.83364
538 6 3 1.17404 19.2729 2.67957
5410 11 4 2.02707 8.74806 6.45328
6117 14 4 8.36205 19.3014 3.30203
2427 27 2 15.4495 7.87172 2.19971
1256 14 1 5.2974 18.5867 0.452158
9207 32 4 12.8297 11.9659 8.8991
6500 17 4 11.5047 4.95234 6.91343
1978 22 3 14.2672 18.6245 2.61783
6492 17 4 11.1397 1.24634 5.6756
8288 27 4 13.2514 8.8577 5.38685
7553 22 4 11.6445 19.5705 2.70061
5573 11 4 2.1668 9.30871 2.50072
5574 11 4 1.52548 7.61571 2.38681
5575 11 4 5.63921 8.15149 3.35993
5576 11 4 5.02974 8.64881 1.73904
5577 11 4 4.48738 9.59608 3.24525
5578 11 4 3.87088 6.68306 2.66569
5579 11 4 3.04413 8.68353 4.68803
5580 11 4 4.27577 7.56399 5.04974
5941 14 4 5.0273 15.4058 5.4377
5942 14 4 5.40382 15.6783 3.74837
5943 14 4 6.68927 15.9395 5.00711
5944 14 4 4.09851 17.6048 4.4185
5945 14 4 4.50658 16.7407 6.95232
5946 14 4 6.11944 17.4336 6.75965
3780 1 4 0.458537 1.97276 1.45509
6660 17 4 12.9342 1.49844 1.69603
5053 9 4 8.34557 2.23869 6.25366
5567 11 4 2.47427 6.34799 0.368414
6119 14 4 5.7686 19.585 4.54334
7754 24 4 11.1841 11.5933 5.34412
904 11 3 0.0366791 8.20728 6.62981
7555 22 4 14.4485 18.4036 1.51529
7749 24 4 6.27333 11.9442 3.70222
3617 1 4 -1.02938 1.80133 7.67974
7007 19 4 9.08812 6.0817 0.612175
6113 14 4 4.74861 19.6437 2.26298
7552 22 4 12.6681 19.3415 0.391445
7753 24 4 10.3287 10.5347 6.45783
6114 14 4 4.60952 17.7797 2.31972
6309 16 4 0.574296 11.2739 2.12097
5952 14 4 3.50995 18.2775 8.79516
6498 17 4 12.835 2.39592 8.41357
6118 14 4 6.77428 17.3607 2.70558
1706 19 1 8.82656 8.20169 0.497194
6120 14 4 7.00567 18.457 4.96977
3603 1 4 0.727201 5.37624 2.04163
3616 1 4 -0.34175 3.77425 5.5428
6850 19 4 8.53228 9.33868 7.04285
6304 16 4 1.46836 13.4723 1.15671
6305 16 4 2.96561 13.9223 3.81615
2791 32 3 15.8159 15.3031 1.39685
7548 22 4 12.6619 16.5115 0.544069
5059 9 4 4.6117 5.53279 8.1949
7559 22 4 12.5153 19.066 4.85704
6310 16 4 2.53818 11.4164 3.74174
6311 16 4 0.740565 12.9904 5.52271
6312 16 4 1.26646 11.2167 5.7313
6313 16 4 4.19655 11.5414 4.85047
6314 16 4 4.92121 12.3001 6.30503
6315 16 4 3.93459 10.8582 6.44613
6316 16 4 2.89999 13.7083 5.84441
6317 16 4 2.46417 11.7251 8.03894
2795 32 1 14.4753 12.3574 3.74606
7394 22 4 13.9672 19.1697 8.05264
7919 24 4 10.7872 13.2007 1.78142
6115 14 4 8.0175 18.9344 1.63193
6322 16 4 0.411548 13.0357 7.86294
7389 22 4 9.11299 18.6598 7.14167
4675 6 4 1.98127 18.8917 3.38596
5568 11 4 4.02735 7.07173 0.307132
9191 32 4 13.7705 13.4123 5.4388
7549 22 4 10.2512 20.0692 1.0995
1174 14 3 3.18374 19.2933 6.44124
7756 24 4 9.7462 13.5998 5.95983
6484 17 4 11.2934 3.54467 1.47635
6485 17 4 13.3654 3.34836 3.61783
6486 17 4 11.8523 4.29027 3.86905
906 11 2 1.41561 8.18508 8.54469
7920 24 4 9.73665 11.7999 1.20368
9184 32 4 14.4127 13.6862 0.809272
7391 22 4 10.9086 19.7916 8.89207
6491 17 4 10.4363 2.80555 5.39818
7916 24 4 12.0021 12.1803 0.476457
7387 22 4 9.44275 20.4407 7.05357
90 1 2 0.585283 3.06505 1.18852
2425 27 3 13.9696 8.2202 0.241072
6496 17 4 12.8233 3.6001 5.97663
6497 17 4 11.7259 1.41701 7.61007
9201 32 4 14.7288 15.8459 6.98009
6490 17 4 12.122 1.20314 3.44919
6109 14 4 3.46273 17.6393 0.0609316
3618 1 4 0.190028 3.03651 7.80771
727 9 3 7.54939 1.81357 5.7257
9187 32 4 12.5936 12.6184 2.87437
5066 9 4 2.86892 1.79088 8.52036
6659 17 4 14.2344 2.62984 1.78864
7762 24 4 6.99626 13.2482 7.72173
6841 19 4 10.3025 5.55489 4.84647
6842 19 4 8.75202 4.80176 4.96521
6843 19 4 9.08472 5.49068 3.4973
6844 19 4 7.74662 7.32617 4.57221
6845 19 4 8.29257 6.19883 6.89463
6846 19 4 9.73229 7.10818 6.95281
6847 19 4 6.13505 9.50247 7.50707
6848 19 4 6.4981 9.22883 5.74944
6849 19 4 5.87104 7.93949 6.81352
5949 14 4 2.93894 20.3576 6.55688
9188 32 4 13.4746 11.3445 2.07945
1704 19 2 9.59799 6.91976 0.0854037
6502 17 4 10.0191 3.35633 7.75464
2796 32 2 14.4557 12.6037 5.28739
7392 22 4 10.3578 18.0781 8.79103
9202 32 4 13.4606 13.9113 7.85423
7 1 3 0.745396 1.8895 5.74875
9192 32 4 13.991 11.8001 5.78496
1975 22 3 10.4842 19.2089 0.379144
7013 19 4 8.40468 9.25758 2.35315
7014 19 4 7.88615 7.49065 2.40374
7015 19 4 11.3411 9.11982 1.53401
7016 19 4 10.3958 10.165 2.74373
7017 19 4 11.7789 9.16287 3.25294
7018 19 4 10.5113 7.10249 2.69306
7019 19 4 9.24335 9.21842 4.46419
7020 19 4 10.6683 8.25653 5.02427
7381 22 4 12.5462 15.223 5.21838
7382 22 4 10.8231 15.2321 5.59952
7383 22 4 11.2224 15.1818 4.00092
7384 22 4 10.5905 17.5281 4.69428
7385 22 4 10.8577 16.8419 6.99147
7386 22 4 12.5613 17.278 6.84227
4680 6 4 0.68449 17.6598 4.75137
6112 14 4 5.84661 19.4226 0.0560706
6505 17 4 9.32524 0.951221 8.58609
8452 27 4 16.0352 9.01665 0.30934
6318 16 4 3.4512 13.0495 8.18595
5054 9 4 7.60847 0.786415 6.04583
3614 1 4 0.741732 1.33969 6.69484
2793 32 2 14.8046 13.6791 3.04824
9189 32 4 12.607 10.9941 3.58985
986 11 1 2.42142 8.4822 0.608392
5050 9 4 5.98467 0.824993 3.60532
6320 16 4 2.35126 15.4245 7.62797
5060 9 4 6.23975 5.15996 8.31757
7752 24 4 8.02628 11.1131 5.81099
7396 22 4 12.688 17.2078 9.11149
6479 16 4 4.42856 12.8658 1.79382
2792 32 1 15.2629 13.8207 1.52155
7557 22 4 15.2574 18.3377 3.06599
7558 22 4 12.9815 16.8559 2.77492
5057 9 4 5.59694 1.44561 7.83748
7560 22 4 13.6452 17.7685 5.05894
8284 27 4 14.3981 7.12491 4.5477
2081 24 1 7.95873 13.5928 8.15125
4668 6 4 0.636713 17.8899 0.346611
7744 24 4 7.73539 13.2418 1.32227
7745 24 4 9.70824 13.8826 3.53633
7746 24 4 7.95395 14.1744 3.76581
7747 24 4 7.13858 11.344 2.23538
7748 24 4 7.14701 10.4485 3.99934
5947 14 4 3.10106 19.159 5.30957
539 6 1 -0.0540299 18.3377 2.82597
6326 16 4 -0.633252 11.7435 9.04509
6493 17 4 14.6899 1.86135 6.51995
6307 16 4 -0.0213294 10.7415 3.69178
7012 19 4 9.39465 9.09318 0.283551
5409 11 4 -0.317547 9.16952 7.03434
3621 1 4 -0.625872 5.58967 7.93044
7008 19 4 10.6524 7.03319 0.507048
8450 27 4 13.365 7.30362 0.278152
4514 6 4 0.785798 19.3668 8.25461
5061 9 4 5.62008 5.02937 6.68192
9183 32 4 14.9834 15.9617 1.6299
2426 27 1 15.4126 8.12 0.664981
5041 9 4 5.94572 4.81555 0.251802
6116 14 4 7.37158 20.4204 2.47445
5411 11 4 1.09718 9.15848 8.77409
7765 24 4 6.41582 11.5606 8.87965
8292 27 4 13.6782 7.48036 8.66219
6108 14 4 6.97755 17.1234 0.34431
2800 32 3 15.0291 15.354 7.91652
4679 6 4 -0.189571 19.12 4.81644
3777 1 4 3.01041 2.65647 0.0515761
5571 11 4 0.29669 8.32927 0.501856
5569 11 4 0.912951 9.87813 0.573956
5951 14 4 4.0417 19.9782 8.64317
9360 32 4 15.7187 11.7188 1.31401
7011 19 4 6.8981 9.2089 0.525811
1974 22 2 12.078 17.3339 -0.013559
4516 6 4 -0.531278 17.5411 8.9616
985 11 3 1.09542 8.93845 0.0620125
8290 27 4 15.3006 9.29727 6.87661
5048 9 4 3.35555 0.340429 3.65338
6110 14 4 3.24023 19.3644 0.286305
9197 32 4 15.0245 11.8407 7.77133
6107 14 4 5.37141 16.4223 0.468713
9185 32 4 15.7392 13.9891 3.57608
1897 22 3 13.6678 19.1828 9.09353
6656 17 4 14.5762 0.494258 0.283373
2424 27 2 16.1092 6.9755 0.0439792
8447 27 4 15.6849 6.03984 0.504163
8451 27 4 13.3247 8.99265 0.765129
8291 27 4 13.8315 9.29676 8.86116
6852 19 4 7.16286 7.3528 8.73442
1177 14 3 6.76265 19.5027 9.12301
6526 17 4 10.2511 0.787685 16.6387
6527 17 4 8.7695 2.81318 18.2753
5420 11 4 1.79551 4.99602 9.90283
6524 17 4 8.12969 1.23648 15.1124
6343 16 4 -1.4723 11.826 15.3239
1183 14 3 2.19147 19.4631 12.4923
5075 9 4 4.41401 1.33397 14.2169
6876 19 4 8.09661 8.68221 17.7647
5064 9 4 4.45138 4.21409 9.9266
5086 9 4 3.30084 1.15672 16.1011
734 9 1 4.18375 2.13199 10.199
735 9 2 3.98917 2.29666 11.6967
5978 14 4 3.76322 15.7192 16.1596
737 9 1 5.27029 2.38683 12.5934
738 9 2 4.79891 2.33388 14.0223
739 9 3 4.40505 4.73921 14.1204
740 9 1 3.79786 3.398 14.4251
741 9 2 3.35624 3.37165 15.8393
7766 24 4 5.83725 10.9968 10.4573
743 9 1 2.64505 2.0487 16.4043
1903 22 3 8.82681 19.1231 12.5376
6512 17 4 13.4177 2.05032 11.1206
909 11 2 2.12265 7.91553 10.895
910 11 3 1.65619 5.356 10.9631
911 11 1 1.1444 6.77077 11.2511
912 11 2 0.707207 6.77191 12.7585
1186 14 3 5.6069 19.1558 15.4768
914 11 1 0.397326 8.11926 13.4155
915 11 2 0.164836 8.06423 14.9433
916 11 3 2.57938 8.67992 15.7797
917 11 1 1.37079 7.7037 15.7989
918 11 2 0.961657 7.47669 17.3242
25 1 3 -1.88919 1.25698 18.287
9228 32 4 12.6031 11.2624 18.2639
736 9 3 6.30386 1.31329 12.212
1179 14 2 5.24029 18.3258 10.755
1180 14 3 4.82383 15.8874 11.2117
1181 14 1 4.2822 17.2551 11.2088
1182 14 2 3.80829 17.5069 12.6407
2805 32 2 14.0694 12.4799 12.0112
1184 14 1 3.40631 18.8278 13.1925
1185 14 2 3.11322 18.6215 14.6786
4513 6 4 0.61779 19.5148 9.96942
1187 14 1 4.36987 18.2844 15.5642
1188 14 2 3.9545 18.344 17.0538
4534 6 4 -1.97917 17.1201 15.1934
6877 19 4 6.13433 5.15785 16.8722
8302 27 4 13.5191 7.13116 10.9207
7409 22 4 9.44463 19.799 15.2149
1364 16 1 1.05153 12.1895 10.3528
1365 16 2 0.942724 12.1967 11.9076
1366 16 3 3.35405 11.7615 12.6233
1367 16 1 2.10818 12.6244 12.7946
1368 16 2 1.63868 12.5591 14.2262
1369 16 3 0.861658 14.9744 14.1746
1370 16 1 0.610245 13.5799 14.6672
1371 16 2 0.438076 13.6783 16.2362
5435 11 4 1.89344 7.12557 17.8468
1373 16 1 0.00112782 12.4063 16.952
5971 14 4 6.15495 19.1858 14.4927
5976 14 4 3.3487 19.2992 17.1293
5426 11 4 -0.949921 8.59224 11.7463
1454 17 1 10.421 1.92847 10.3164
1455 17 2 10.3236 2.04196 11.8654
6349 16 4 2.89305 12.3165 17.9334
1457 17 1 11.5861 2.55753 12.4645
1458 17 2 11.463 2.5108 13.9995
1459 17 3 11.0011 4.79279 14.7881
1460 17 1 10.4767 3.37717 14.7182
1461 17 2 10.2646 2.96641 16.1847
3793 2 4 -0.760257 0.281956 9.55815
1463 17 1 9.6207 1.6951 16.6649
1639 19 3 7.18411 5.39658 17.2615
7419 22 4 11.142 15.5774 17.4987
1629 19 2 8.73667 7.85668 11.0661
1630 19 3 7.5143 5.81383 10.9356
1631 19 1 7.44734 7.28116 11.4703
1632 19 2 7.25611 7.12898 12.9825
1633 19 3 5.73089 9.10196 13.1536
1634 19 1 7.04549 8.51406 13.5481
1635 19 2 6.9961 8.42884 15.1168
1636 19 3 9.51663 8.91954 15.7171
1637 19 1 8.33282 7.94967 15.8519
1638 19 2 8.24367 7.6887 17.3837
6860 19 4 8.3355 5.19692 11.3687
1190 14 1 3.22036 17.1678 17.5996
2802 32 2 14.3985 13.8391 9.83551
1899 22 2 11.939 18.358 10.7592
1900 22 3 11.1637 15.9277 10.9409
1901 22 1 10.8832 17.4017 11.2864
1902 22 2 10.6283 17.4874 12.8146
6855 19 4 11.2117 8.11267 9.86459
1904 22 1 10.062 18.7534 13.3499
1905 22 2 9.77777 18.765 14.858
4532 6 4 -0.313589 18.7859 15.9033
1907 22 1 11.006 18.3248 15.6863
1908 22 2 10.841 18.1363 17.2229
3636 1 4 -1.4392 2.58348 14.4335
459 6 2 -1.51358 18.3565 10.7118
6339 16 4 1.76074 15.3259 14.6591
5427 11 4 -1.68109 7.80828 13.1129
2084 24 1 7.48761 12.3873 10.3957
2085 24 2 7.44894 12.5613 11.8818
2086 24 3 9.87165 11.9717 12.4614
2087 24 1 8.7139 12.9128 12.7337
2088 24 2 8.42201 12.95 14.2158
2089 24 3 7.49701 15.369 14.3896
2090 24 1 7.29264 13.8909 14.6962
2091 24 2 7.09722 13.7517 16.2193
2092 24 3 5.25951 11.928 16.1244
2093 24 1 6.60821 12.4057 16.7268
7786 24 4 7.39097 11.6902 16.4321
2804 32 1 14.1014 12.4644 10.4672
920 11 1 -0.0938529 6.49381 17.6252
5445 11 4 -2.07263 8.3264 17.973
2353 27 3 12.124 8.42519 12.7113
2351 27 1 14.5227 7.13647 11.4448
3651 1 4 -1.69087 1.24135 17.2176
6510 17 4 10.0913 1.12315 12.3499
9217 32 4 13.2814 16.0292 14.582
732 9 2 4.98797 3.29941 9.59992
2352 27 2 14.3466 7.16269 12.9414
1189 14 3 3.9472 15.9049 17.2004
8309 27 4 12.9348 9.16747 15.2585
6525 17 4 8.0448 0.330623 16.586
5973 14 4 6.23729 18.7527 16.2908
1909 22 3 10.1177 15.7622 17.1373
2812 32 3 11.8704 12.3016 15.963
1452 17 2 10.7088 3.29499 9.69717
5421 11 4 2.67387 5.23992 11.3337
7410 22 4 8.87474 18.1252 15.0378
8310 27 4 12.4113 7.44401 14.9567
7763 24 4 8.85061 14.1489 10.1152
8308 27 4 14.0515 9.23907 13.3422
7405 22 4 8.00628 18.3743 12.6595
7400 22 4 10.3938 15.3124 11.3111
5961 14 4 5.91014 15.8343 11.5063
7407 22 4 8.94508 19.2147 11.4366
7417 22 4 9.46194 15.0836 17.6748
8305 27 4 11.507 9.31395 13.0245
5419 11 4 0.92868 4.65337 11.4499
5968 14 4 4.1043 19.6244 13.127
6875 19 4 9.18912 7.17833 17.7637
8303 27 4 13.8499 6.20288 13.2028
7767 24 4 5.49887 12.798 9.99841
3633 1 4 0.162733 1.95891 12.2743
468 6 2 -2.55603 18.1015 17.0451
5969 14 4 2.57508 19.5397 15.097
6851 19 4 7.28804 8.98166 9.23126
5975 14 4 4.80273 18.4847 17.748
7424 22 4 7.86761 19.4196 18.0429
1372 16 3 -1.39637 12.0695 16.4244
5436 11 4 0.944763 8.50104 17.7144
2082 24 2 7.90495 13.6967 9.67275
5070 9 4 3.2586 1.54873 12.0946
6878 19 4 7.89953 5.35609 16.4337
6327 16 4 -0.696488 11.0025 10.6314
1453 17 3 9.23805 1.22102 9.60972
5438 11 4 1.23757 4.76174 17.7205
5955 14 4 6.54798 20.4172 9.67915
5069 9 4 3.49148 3.1912 11.8719
733 9 3 2.75615 2.04374 9.60339
7398 22 4 11.5782 19.3904 10.9653
4539 6 4 -2.99184 15.0169 18.1827
2359 27 3 13.5432 5.41997 17.5235
5074 9 4 5.8299 3.37288 12.3664
5091 9 4 5.19368 0.986226 17.3687
5076 9 4 5.59548 2.35769 14.7615
5077 9 4 5.47276 4.67859 14.5294
5078 9 4 4.50978 4.92577 13.0528
5079 9 4 3.8855 5.49397 14.6831
5080 9 4 2.83443 3.36784 13.8355
5081 9 4 4.19395 3.5228 16.501
5082 9 4 2.59687 4.22191 16.0332
9222 32 4 13.5532 14.5403 16.8213
6883 19 4 5.1791 9.11023 18.1153
9220 32 4 13.102 13.526 14.3113
7401 22 4 11.2759 15.7872 9.83052
5439 11 4 -0.467926 4.38737 17.4033
5415 11 4 3.76496 9.62548 9.60268
5417 11 4 2.96952 7.8874 11.5389
9225 32 4 11.131 13.0088 16.3808
1628 19 1 9.09017 7.86119 9.58802
469 6 3 -2.67797 15.7257 17.4128
9224 32 4 11.5032 11.2949 16.28
5422 11 4 0.288538 7.04707 10.7004
5423 11 4 -0.184052 6.12619 12.8771
5424 11 4 1.59688 6.33333 13.2964
9210 32 4 13.8831 11.4029 12.3109
4531 6 4 -1.46811 20.1795 15.604
2354 27 1 13.5102 8.30525 13.4868
5428 11 4 1.22062 8.78205 13.2254
5429 11 4 -0.160808 9.05434 15.1984
5430 11 4 -0.588043 7.29364 15.1536
5068 9 4 4.68665 1.16499 9.93873
5416 11 4 2.75513 6.74922 9.21235
6859 19 4 7.73346 5.897 9.87741
5434 11 4 1.80318 6.7528 15.4218
6517 17 4 10.9342 5.32204 13.8158
5960 14 4 4.67025 15.5051 10.1819
2360 27 1 13.0546 6.87044 17.8726
5967 14 4 1.35802 18.7376 12.5443
3631 1 4 -1.1537 0.824013 11.9543
7408 22 4 10.8219 19.6036 13.232
7412 22 4 11.8439 20.3317 15.7364
6529 17 4 12.3966 1.26131 17.6718
5957 14 4 6.23797 18.1878 11.2619
8320 27 4 12.1457 7.06945 17.3392
5958 14 4 4.90252 19.3136 11.0067
3632 1 4 -0.663864 1.94033 10.726
5073 9 4 6.98602 1.13315 13.0452
5962 14 4 3.44243 17.2383 10.5003
5963 14 4 2.95606 16.8027 12.7782
5964 14 4 4.59963 17.0254 13.2503
6513 17 4 13.7197 2.37306 12.8211
7413 22 4 13.043 19.1143 16.0591
4517 6 4 -0.572092 18.03 11.1553
742 9 3 1.3161 1.8362 15.6528
4533 6 4 -0.744143 19.28 14.3302
5970 14 4 2.32206 17.8305 14.7587
7395 22 4 13.4147 20.1914 9.44514
5965 14 4 2.02083 20.4632 12.8873
7783 24 4 4.73043 11.2243 16.7769
5974 14 4 4.73275 17.2843 15.2942
2814 32 2 13.0202 12.2516 18.0602
8306 27 4 12.0941 8.55508 11.5942
913 11 3 -0.961622 8.56232 12.8136
6880 19 4 6.121 7.29749 17.258
6861 19 4 6.46701 5.29788 11.1437
6508 17 4 11.3529 1.34067 10.1923
4538 6 4 -1.54466 15.8892 17.391
1640 19 1 7.03258 6.8662 17.7678
908 11 1 2.5692 7.81237 9.4669
9205 32 4 12.7563 10.8036 10.3942
5088 9 4 1.9987 0.85333 18.0807
458 6 1 -1.0062 18.4597 9.22294
6329 16 4 0.0888964 12.829 12.1316
6330 16 4 0.588728 11.1837 12.2581
6331 16 4 3.23014 10.8153 13.1228
6332 16 4 3.69038 11.5141 11.6244
6333 16 4 4.22494 12.3135 12.9657
6334 16 4 2.40791 13.6565 12.5373
6335 16 4 1.12297 11.5692 14.2992
6336 16 4 2.53219 12.5114 14.9329
5977 14 4 3.72513 14.995 17.7566
6523 17 4 7.37017 2.0043 16.5189
6328 16 4 1.65417 11.3388 10.0822
6340 16 4 -0.31384 13.1638 14.2216
6341 16 4 1.27411 14.165 16.6844
6342 16 4 -0.430599 14.4311 16.3212
3623 1 4 -1.52138 4.24987 10.0344
7764 24 4 7.20098 14.5142 9.97441
4520 6 4 -1.05248 15.9156 10.4797
6346 16 4 0.783636 11.65 16.8369
919 11 3 0.335773 5.07473 17.2193
1462 17 3 8.2109 1.36784 16.2085
1910 22 1 9.75429 17.2392 17.5942
6856 19 4 9.57793 6.92781 9.22023
2813 32 1 13.276 12.3791 16.6082
5437 11 4 0.502601 5.08551 16.0791
6509 17 4 9.55085 2.80398 12.1689
1178 14 1 5.63348 18.4838 9.25742
5959 14 4 4.20095 15.2301 11.7937
5425 11 4 -1.34142 9.57151 13.0946
7415 22 4 11.7082 17.6481 17.6553
6514 17 4 11.6441 3.61944 12.2432
6515 17 4 11.3096 1.42916 14.2266
6516 17 4 12.4855 2.79001 14.3335
4535 6 4 -1.63363 18.1528 17.7451
6518 17 4 10.3575 5.27968 15.4686
6519 17 4 12.0413 4.7283 15.1668
6520 17 4 9.46212 3.4074 14.2428
6521 17 4 11.2375 3.10296 16.6806
6522 17 4 9.66359 3.79184 16.65
5431 11 4 2.35676 9.68937 16.0469
5433 11 4 3.06977 8.56436 14.8228
7791 24 4 9.31953 12.2899 17.8869
5413 11 4 4.61181 8.07495 9.86248
466 6 3 -1.15361 19.0932 15.3184
5087 9 4 1.73071 2.56795 18.2946
6857 19 4 9.52519 7.26506 11.5773
6858 19 4 8.91398 8.91075 11.3518
7784 24 4 4.50742 12.7625 16.0331
2803 32 3 12.8185 11.8225 9.957
3639 1 4 -1.72964 5.39584 14.7308
6862 19 4 6.57828 7.74417 11.11
6863 19 4 6.27473 6.60708 13.1647
6864 19 4 8.02076 6.44222 13.5069
6865 19 4 5.36933 9.91902 13.7311
6866 19 4 5.60491 9.40663 12.0678
6867 19 4 4.92385 8.30811 13.3374
6868 19 4 7.89454 9.20075 13.2726
6869 19 4 6.66004 9.35589 15.5518
6870 19 4 6.23097 7.62626 15.2382
6511 17 4 12.9954 0.879706 12.4156
6872 19 4 9.78132 9.20226 14.7045
5084 9 4 0.70827 1.15576 16.3065
6874 19 4 8.63977 7.00019 15.3527
5085 9 4 0.762247 2.82677 15.5397
6873 19 4 9.27712 9.91363 16.1889
9223 32 4 11.8036 12.4412 14.8402
8307 27 4 11.4845 7.5417 12.9245
2355 27 2 13.2776 8.17459 14.9376
6503 17 4 11.623 3.66554 10.163
5072 9 4 6.73177 1.64503 11.2359
1456 17 3 12.945 1.90956 12.176
7397 22 4 12.8681 18.2787 11.4379
5083 9 4 1.40194 1.41824 14.6627
6507 17 4 8.35518 1.92945 9.74725
1363 16 3 -0.390171 11.8929 10.1023
1898 22 1 12.4178 18.286 9.34833
7402 22 4 9.98609 17.6668 10.7423
7403 22 4 10.0135 16.5772 13.1158
7404 22 4 11.6679 17.4284 13.2284
7393 22 4 14.4542 18.7289 9.75377
6338 16 4 -0.0401799 15.6143 14.3772
6506 17 4 8.89899 0.298474 10.1633
7416 22 4 10.6505 19.1945 17.5839
6871 19 4 10.2944 8.3693 16.2182
5985 14 4 1.12226 19.2661 17.9486
5432 11 4 3.40627 8.3304 16.4635
7420 22 4 8.83507 17.531 17.0578
5071 9 4 5.68421 0.397165 12.0509
7414 22 4 11.4027 17.3361 15.2317
1906 22 3 12.1417 19.3197 15.5152
5065 9 4 2.19923 2.91978 9.92358
6323 16 4 2.56424 13.817 9.92527
7768 24 4 8.12633 11.541 10.234
1362 16 2 1.53783 13.5417 9.72025
9206 32 4 12.0032 12.311 10.5276
6337 16 4 0.987849 15.2684 13.1264
5440 11 4 -0.981313 6.69355 17.0187
6324 16 4 0.831861 14.3029 10.124
7399 22 4 12.1265 15.7318 11.4135
5418 11 4 1.65998 8.90274 11.017
7418 22 4 9.98305 15.6109 16.0206
7769 24 4 6.73952 13.369 12.1263
7770 24 4 7.07899 11.6485 12.4008
7771 24 4 9.72826 10.9718 12.8805
7772 24 4 10.0541 11.91 11.3609
7773 24 4 10.7706 12.4359 12.8701
7774 24 4 8.97186 13.8931 12.4446
7775 24 4 8.18941 11.9014 14.4792
7776 24 4 9.27822 13.1779 14.8866
7777 24 4 7.56255 15.6701 13.2995
7778 24 4 6.5649 15.7889 14.6685
7779 24 4 8.27846 15.9485 14.9599
7780 24 4 6.31913 13.6197 14.2487
7781 24 4 8.0679 13.8383 16.6912
7782 24 4 6.56682 14.5495 16.6077
17 1 1 -1.92266 2.84381 12.3465
16 1 3 -0.852432 1.87426 11.818
7785 24 4 5.5091 11.4565 15.1562
5980 14 4 2.24204 17.1438 17.0877
9204 32 4 13.763 14.622 10.2586
744 9 2 2.47184 1.83987 17.9677
5063 9 4 6.07601 3.3656 9.86723
2094 24 2 6.42997 12.4948 18.2351
9209 32 4 13.2171 13.1026 12.2363
2083 24 3 6.15224 11.9152 9.86951
6344 16 4 -1.92312 11.2081 16.9809
7411 22 4 12.4577 19.4635 14.4641
3634 1 4 -1.31425 3.79893 12.377
6504 17 4 9.96492 4.11612 9.99738
5966 14 4 2.36099 19.7536 11.4393
7406 22 4 8.48628 20.1486 12.7726
1627 19 3 10.3743 8.6959 9.50254
2810 32 1 14.0102 13.9322 14.7599
6345 16 4 -2.04608 12.9961 16.4853
5979 14 4 4.94449 16.0972 17.5161
5067 9 4 2.17151 1.13711 9.98939
907 11 3 3.86747 8.6248 9.25672
6879 19 4 7.53642 4.75791 18.0936
4524 6 4 -1.73593 17.2825 13.2106
5953 14 4 7.70482 19.1335 9.6338
467 6 1 -2.31259 18.1166 15.5361
6325 16 4 -1.00587 12.704 10.501
5972 14 4 5.21565 20.1939 15.7123
9219 32 4 14.1286 15.4288 13.2615
5804 13 4 0.968077 20.743 16.3844
8317 27 4 12.7759 4.65715 17.7472
4518 6 4 -1.68965 19.3256 11.0806
6854 19 4 10.3099 9.54809 10.258
3641 1 4 -2.24782 3.48079 16.4392
8298 27 4 14.6955 9.24258 11.1134
1464 17 2 9.49942 1.96554 18.198
8846 30 4 14.3342 19.8818 13.2195
2819 32 1 12.4974 13.2678 20.7552
6532 17 4 10.9654 3.19226 18.6768
747 9 2 3.53736 1.95041 20.2568
748 9 3 3.11574 4.57374 20.7527
749 9 1 2.6429 3.0455 20.8844
921 11 2 -0.307251 6.60336 19.0851
923 11 1 -0.817934 8.02267 19.6904
924 11 2 -0.921683 7.85094 21.2822
1191 14 2 2.96469 17.2797 19.1234
3654 1 4 -2.3823 2.03503 20.6883
1193 14 1 2.30644 18.5682 19.6508
1194 14 2 2.20454 18.5378 21.1923
7789 24 4 9.5971 12.7413 19.6889
5983 14 4 0.384485 17.869 18.9925
1377 16 2 0.799944 13.3517 20.6908
1378 16 3 -0.422392 15.405 20.7949
1379 16 1 -0.500311 13.9482 21.0764
6352 16 4 1.63049 14.2146 18.7476
3657 1 4 -2.56846 4.6548 20.7004
1467 17 2 10.4408 2.18497 20.5204
1468 17 3 9.78962 4.63244 20.8619
1469 17 1 9.35714 3.17896 21.081
745 9 3 4.97937 1.07381 18.4105
4542 6 4 -2.49483 17.042 19.5166
5991 14 4 4.5879 19.6001 20.8821
7429 22 4 11.462 17.9027 20.5197
1643 19 1 6.44117 8.19205 19.8225
1911 22 2 9.36461 17.1624 19.0468
1913 22 1 8.99209 18.4475 19.785
5441 11 4 -1.06114 5.79587 19.4422
7426 22 4 9.79613 19.2085 19.6502
2097 24 2 7.23954 12.7732 20.629
2098 24 3 6.18757 15.0291 20.8882
2099 24 1 5.99976 13.4961 21.0914
7792 24 4 7.74128 14.0478 18.7592
2362 27 3 11.54 8.95167 19.4516
1465 17 3 11.8943 1.143 18.69
7421 22 4 8.66602 16.3721 19.2097
5443 11 4 -2.93275 7.70811 19.2852
1642 19 3 5.22612 8.88671 19.2571
3652 1 4 -2.74567 3.18252 18.3957
6531 17 4 11.2978 0.178739 18.8095
6355 16 4 0.0795933 15.5968 19.7825
8321 27 4 12.0531 6.18083 19.7819
7788 24 4 6.02567 11.523 18.6247
5984 14 4 0.384358 19.5983 19.5397
7425 22 4 7.04707 18.0044 18.8769
6881 19 4 5.84894 6.21277 19.3961
7423 22 4 7.22788 19.6873 19.6751
9236 32 4 12.8422 14.7919 19.2641
6347 16 4 -0.801212 13.4489 18.6645
7422 22 4 10.329 16.8306 19.3949
5444 11 4 -2.54879 9.50156 19.3112
5093 9 4 3.00757 0.986669 20.4756
5094 9 4 4.43846 2.04085 20.8621
5095 9 4 4.27116 4.65815 20.9131
5096 9 4 2.96941 5.0179 19.815
5098 9 4 1.57517 3.09161 20.593
2096 24 1 7.5972 12.9366 19.0867
6885 19 4 5.03168 9.79344 19.8311
5089 9 4 5.91645 1.43187 18.9186
6356 16 4 -1.41623 15.9248 20.766
8323 27 4 10.6883 8.28603 19.2397
1374 16 2 -0.0605743 12.6974 18.4978
5442 11 4 0.623619 6.30734 19.6209
2095 24 3 8.95225 12.2031 18.9062
5446 11 4 -0.148745 8.84298 19.5058
5451 11 4 1.48084 8.59347 20.8207
5986 14 4 2.89873 19.4599 19.2461
5982 14 4 3.97248 17.1849 19.5815
4551 6 4 -1.56857 19.2577 21.1027
7249 21 4 11.0371 20.7026 18.8713
2363 27 1 12.7131 8.16983 20.1167
6348 16 4 -0.384293 11.785 19.0503
6353 16 4 0.79472 12.2478 21.0185
6354 16 4 1.65322 13.9628 21.1379
6884 19 4 4.38765 8.1964 19.4342
6358 16 4 -1.33989 13.4562 20.5025
922 11 3 -2.15055 8.43763 19.021
5981 14 4 2.34206 16.4767 19.4319
1192 14 3 0.952743 18.8222 18.9881
1376 16 1 1.24956 13.2364 19.186
6533 17 4 10.1154 1.13176 20.8269
6534 17 4 11.3454 2.43212 21.1618
6535 17 4 10.8529 4.81948 21.1842
6536 17 4 9.78212 4.83784 19.809
2818 32 3 12.8679 14.639 20.3459
6538 17 4 8.41443 3.0063 20.4971
3649 1 4 -1.05344 1.66343 18.8522
1641 19 2 6.72333 6.80695 19.2449
1912 22 3 7.69584 18.9449 19.0722
6882 19 4 7.65386 6.33267 19.7987
1466 17 1 10.7766 2.16184 18.9982
9241 32 4 10.3016 12.0553 21.3441
8324 27 4 11.2415 9.77782 20.1268
6530 17 4 12.7467 1.1418 19.3623
6886 19 4 7.34003 8.87153 19.6639
27 1 2 -3.36018 2.0665 20.163
6541 17 4 7.52083 1.17291 21.3002
7787 24 4 5.63589 13.236 18.4133
9238 32 4 11.6591 12.9292 20.2106