LAMMPS data file generated by aa2cg.

2000 atoms
1 atom types
1975 bonds
1 bond types
1950 angles
1 angle types
1925 dihedrals
1 dihedral types

 0.000 53.346 xlo xhi
 0.000 48.197 ylo yhi
 0.000 45.272 zlo zhi

Masses

1 24.022

Atoms # molecular

1 1 1 17.915 11.161 42.624 
2 1 1 32.480 10.597 33.315 
3 2 1  6.520 44.982 45.512 
4 2 1 14.025  7.619 41.200 
5 3 1 17.730 10.400  8.037 
6 3 1 28.825 44.593 14.443 
7 4 1 26.864 13.294  3.618 
8 4 1 16.679 17.588 25.174 
9 5 1 50.412 23.567 43.723 
10 5 1 46.923 11.990 38.138 
11 6 1 36.081 32.547 23.438 
12 6 1 24.224 42.008 22.694 
13 7 1  9.355  5.519  2.873 
14 7 1 50.267  1.583 41.426 
15 8 1  9.909 10.642 16.470 
16 8 1  0.072 27.914 19.054 
17 9 1 19.685  6.558 18.222 
18 9 1 47.962 33.074  9.920 
19 10 1 11.273 23.117 24.172 
20 10 1 37.039 19.116 14.744 
21 11 1 26.507 21.093 11.481 
22 11 1 36.362  8.307 39.461 
23 12 1 20.635 41.103 39.322 
24 12 1 41.292 21.873 38.751 
25 13 1  6.485 30.643 34.726 
26 13 1  8.553  5.480 40.289 
27 14 1 33.420 30.774 10.697 
28 14 1 26.746 31.072 25.789 
29 15 1 33.568 43.038  3.794 
30 15 1 50.568 34.883  5.991 
31 16 1 13.270 32.064 40.688 
32 16 1  4.339  2.715 20.370 
33 17 1 42.326 21.148  8.532 
34 17 1 42.190 11.842 35.583 
35 18 1 29.169 46.775 44.847 
36 18 1 10.457 15.155 11.260 
37 19 1 45.644 17.160 18.840 
38 19 1 47.969 34.121 33.189 
39 20 1 36.001  8.814  4.558 
40 20 1 49.560 10.115 24.854 
41 21 1  0.453 33.780 43.064 
42 21 1  9.818  9.583 11.885 
43 22 1 49.304 44.798 34.390 
44 22 1  2.530 36.054 22.212 
45 23 1 24.740  3.460  5.334 
46 23 1 25.399 17.239 30.601 
47 24 1 28.452 48.332  3.092 
48 24 1 18.573 26.015 44.664 
49 25 1 34.556 20.550 45.093 
50 25 1 33.157  0.589  1.326 
51 1 1 17.591 10.390 45.141 
52 1 1 17.794  9.435  2.293 
53 1 1 18.801  7.185  2.942 
54 1 1 19.518  4.786  3.621 
55 1 1 19.991  2.353  4.212 
56 1 1 21.272  0.385  4.143 
57 1 1 23.514 47.398  3.841 
58 1 1 24.161 46.201  1.627 
59 1 1 24.938 45.359 44.521 
60 1 1 25.597 44.861 42.076 
61 1 1 25.345 44.069 39.916 
62 1 1 24.050 42.891 38.006 
63 1 1 23.332 41.518 35.885 
64 1 1 23.797 38.990 35.218 
65 1 1 24.308 36.550 34.398 
66 1 1 24.762 34.027 33.932 
67 1 1 25.092 31.474 34.058 
68 1 1 25.006 28.909 34.597 
69 1 1 24.930 26.354 35.191 
70 1 1 25.142 24.232 36.299 
71 1 1 23.102 23.035 36.411 
72 1 1 21.320 21.324 35.897 
73 1 1 19.454 19.671 35.718 
74 1 1 19.410 17.294 34.712 
75 1 1 19.033 14.973 33.692 
76 1 1 18.720 12.666 32.592 
77 1 1 19.264 10.552 31.210 
78 1 1 18.095  8.381 31.500 
79 1 1 18.860  6.541 33.278 
80 1 1 19.506  4.662 34.942 
81 1 1 20.597  3.892 36.782 
82 1 1 22.025  4.299 38.789 
83 1 1 23.522  4.868 40.902 
84 1 1 24.980  6.848 41.714 
85 1 1 26.402  8.695 42.902 
86 1 1 26.879  8.876 45.380 
87 1 1 27.359  8.599  2.719 
88 1 1 27.882  8.649  5.217 
89 1 1 28.558  8.512  7.699 
90 1 1 30.908  9.113  8.602 
91 1 1 33.049 10.082  8.532 
92 1 1 34.926 11.418  8.256 
93 1 1 36.890 12.817  8.977 
94 1 1 39.123 13.959  9.288 
95 1 1 40.673 15.512  9.611 
96 1 1 41.570 17.582 10.771 
97 1 1 42.692 19.452 12.069 
98 1 1 44.426 19.949 13.405 
99 1 1 46.552 19.627 14.788 
100 1 1 48.913 19.431 15.768 
101 1 1 51.091 19.397 17.161 
102 1 1 -0.676 17.501 17.804 
103 1 1  1.320 15.836 18.123 
104 1 1  3.005 13.980 18.647 
105 1 1  4.835 13.912 20.464 
106 1 1  6.936 12.519 20.516 
107 1 1  8.984 11.085 21.055 
108 1 1 11.076  9.764 21.693 
109 1 1 13.473  8.997 22.201 
110 1 1 15.535  8.028 21.654 
111 1 1 16.494  9.292 19.621 
112 1 1 17.902 10.628 18.403 
113 1 1 19.505 11.836 17.283 
114 1 1 21.511 10.717 16.827 
115 1 1 23.557  9.338 16.484 
116 1 1 24.892 10.019 14.204 
117 1 1 26.126 11.004 12.166 
118 1 1 27.708 12.131 10.458 
119 1 1 29.105 13.311  8.633 
120 1 1 30.256 14.418  6.624 
121 1 1 32.015 13.551  4.834 
122 1 1 33.648 12.895  2.993 
123 1 1 32.712 11.460 46.462 
124 1 1 31.628  9.789 44.824 
125 1 1 30.956  9.919 42.397 
126 1 1 30.487  9.543 39.874 
127 1 1 30.923  9.549 37.634 
128 1 1 32.337 10.190 35.564 
129 2 1  6.253 47.414 44.997 
130 2 1  6.290  1.544 43.950 
131 2 1  7.423  1.313 41.909 
132 2 1  8.079 48.034 39.991 
133 2 1  8.807 46.229 38.414 
134 2 1  9.815 44.359 36.931 
135 2 1 11.027 43.919 34.870 
136 2 1 11.948 44.269 32.389 
137 2 1 11.869 46.373 30.894 
138 2 1 11.651 48.375 29.208 
139 2 1 10.693  2.080 28.228 
140 2 1  8.721  3.657 27.938 
141 2 1  8.315  5.028 29.705 
142 2 1  9.216  6.859 31.364 
143 2 1  9.292  9.471 31.049 
144 2 1  9.382 11.982 31.138 
145 2 1  9.868 14.543 31.317 
146 2 1 10.189 17.008 31.835 
147 2 1 10.550 19.568 32.427 
148 2 1 10.737 22.074 33.175 
149 2 1 11.091 24.563 33.454 
150 2 1 11.316 27.061 33.853 
151 2 1 11.834 29.443 34.695 
152 2 1 11.401 31.485 35.517 
153 2 1  9.863 33.503 36.032 
154 2 1  8.332 33.652 37.790 
155 2 1  7.854 33.885 40.312 
156 2 1  9.517 33.716 42.317 
157 2 1  9.703 35.164 44.512 
158 2 1  9.890 36.597 46.544 
159 2 1 10.135 37.878  3.512 
160 2 1 10.145 39.395  5.605 
161 2 1 10.647 38.707  8.087 
162 2 1 11.402 38.117 10.527 
163 2 1 12.412 37.660 12.894 
164 2 1 13.041 37.507 15.378 
165 2 1 13.943 37.186 17.849 
166 2 1 13.836 37.625 20.204 
167 2 1 13.120 38.962 22.381 
168 2 1 12.190 40.413 24.301 
169 2 1 10.890 41.411 26.235 
170 2 1  9.508 42.855 27.972 
171 2 1  7.721 42.003 29.492 
172 2 1  6.482 41.633 31.441 
173 2 1  6.350 41.892 34.064 
174 2 1  5.512 43.924 35.411 
175 2 1  4.519 45.669 37.045 
176 2 1  3.247 47.556 37.740 
177 2 1  1.469  1.204 37.593 
178 2 1 -0.207  3.066 37.624 
179 2 1 -1.301  5.000 38.446 
180 2 1 50.910  6.785 39.336 
181 2 1 50.077  8.797 40.116 
182 2 1 49.921 10.790 41.770 
183 2 1 -1.270 11.978 42.391 
184 2 1  0.847 12.961 43.159 
185 2 1  2.989 13.903 44.064 
186 2 1  5.216 14.634 45.132 
187 2 1  7.557 15.302 46.036 
188 2 1  9.920 15.848 46.928 
189 2 1 12.311 16.557  2.535 
190 2 1 14.604 17.345  3.228 
191 2 1 16.940 18.083  4.090 
192 2 1 19.223 18.736  5.100 
193 2 1 21.429 19.517  4.862 
194 2 1 21.805 21.007  2.913 
195 2 1 20.732 22.263 46.444 
196 2 1 18.783 21.070 45.384 
197 2 1 16.658 19.925 44.646 
198 2 1 14.260 19.257 43.937 
199 2 1 11.964 18.671 42.941 
200 2 1  9.632 18.421 41.688 
201 2 1  8.145 16.680 41.390 
202 2 1  7.037 14.534 40.452 
203 2 1  6.048 12.441 40.808 
204 2 1  7.547 10.781 40.816 
205 2 1  9.460  9.644 40.403 
206 2 1 11.823  8.906 40.932 
207 3 1 16.502 10.817 10.300 
208 3 1 15.618 11.237 12.751 
209 3 1 15.255  9.074 14.229 
210 3 1 15.062  6.973 15.698 
211 3 1 13.012  6.088 17.022 
212 3 1 13.247  4.882 19.373 
213 3 1 13.631  3.816 21.663 
214 3 1 13.662  3.096 24.247 
215 3 1 14.623  3.405 26.309 
216 3 1 16.477  3.863 27.776 
217 3 1 18.150  5.326 27.119 
218 3 1 18.912  7.696 26.839 
219 3 1 19.692 10.208 26.778 
220 3 1 20.429 12.620 26.801 
221 3 1 21.163 15.110 26.723 
222 3 1 21.748 17.541 26.629 
223 3 1 22.328 20.135 26.325 
224 3 1 20.740 21.830 26.519 
225 3 1 18.556 23.127 25.784 
226 3 1 17.119 22.935 23.604 
227 3 1 15.865 22.849 21.453 
228 3 1 14.574 22.944 19.175 
229 3 1 13.403 22.797 16.894 
230 3 1 12.370 22.620 14.639 
231 3 1 11.728 22.910 12.173 
232 3 1 11.113 23.129  9.616 
233 3 1  8.956 22.956  8.335 
234 3 1  6.872 22.894  6.743 
235 3 1  4.848 22.074  5.352 
236 3 1  2.695 21.401  4.146 
237 3 1  0.317 21.003  3.105 
238 3 1 -2.023 20.591  2.324 
239 3 1 48.867 20.295  1.610 
240 3 1 46.463 19.513 46.786 
241 3 1 45.388 17.704 45.221 
242 3 1 43.136 18.094 44.045 
243 3 1 40.932 18.232 42.755 
244 3 1 38.717 18.681 41.654 
245 3 1 36.108 19.023 41.001 
246 3 1 33.518 19.253 40.479 
247 3 1 30.989 19.128 40.073 
248 3 1 28.422 18.544 39.969 
249 3 1 26.163 17.350 40.337 
250 3 1 24.023 16.245 41.077 
251 3 1 21.795 16.157 39.846 
252 3 1 19.534 15.303 38.872 
253 3 1 17.321 14.392 38.040 
254 3 1 14.777 14.086 37.519 
255 3 1 12.313 13.908 36.951 
256 3 1  9.943 14.307 36.186 
257 3 1  7.542 14.502 35.551 
258 3 1  4.965 14.946 35.142 
259 3 1  3.731 16.856 35.494 
260 3 1  3.171 19.339 34.986 
261 3 1  3.210 21.975 34.683 
262 3 1  3.473 24.427 34.823 
263 3 1  3.364 27.057 34.556 
264 3 1  2.742 29.586 34.165 
265 3 1  2.166 32.122 33.761 
266 3 1  1.131 34.440 33.142 
267 3 1 -0.368 36.367 33.208 
268 3 1 -2.018 37.964 34.320 
269 3 1 49.862 39.699 35.627 
270 3 1 48.679 41.370 37.160 
271 3 1 46.931 42.638 38.533 
272 3 1 45.143 43.844 39.817 
273 3 1 43.277 45.179 41.059 
274 3 1 41.908 45.989 42.779 
275 3 1 41.466 47.092 44.882 
276 3 1 40.102 48.327 46.074 
277 3 1 38.203  0.556 47.300 
278 3 1 36.589  0.629  3.926 
279 3 1 35.360  0.814  6.207 
280 3 1 34.059 47.117  6.622 
281 3 1 31.499 47.303  7.072 
282 3 1 29.652 47.679  8.392 
283 3 1 28.748 45.980 10.131 
284 3 1 27.568 44.884 12.204 
285 4 1 27.386 14.011  1.414 
286 4 1 27.243 13.527 44.105 
287 4 1 26.795 12.897 41.627 
288 4 1 26.434 12.390 39.134 
289 4 1 26.907 12.611 36.878 
290 4 1 28.040 13.544 34.732 
291 4 1 28.786 13.287 32.630 
292 4 1 28.607 12.141 30.378 
293 4 1 30.314 11.059 28.864 
294 4 1 31.847  9.744 27.389 
295 4 1 33.104  7.915 26.000 
296 4 1 32.116  7.124 23.780 
297 4 1 31.222  6.129 21.591 
298 4 1 30.321  5.152 19.364 
299 4 1 31.981  4.006 18.181 
300 4 1 34.076  3.714 16.727 
301 4 1 35.420  3.612 14.572 
302 4 1 36.964  3.827 12.553 
303 4 1 38.354  3.177 10.707 
304 4 1 38.124  0.636 10.375 
305 4 1 37.686 46.676 11.017 
306 4 1 36.285 45.147 12.042 
307 4 1 34.018 43.966 12.433 
308 4 1 32.273 42.773 13.436 
309 4 1 31.489 41.347 15.478 
310 4 1 30.761 39.927 17.493 
311 4 1 32.307 38.458 18.378 
312 4 1 33.645 36.374 18.716 
313 4 1 35.299 34.690 18.946 
314 4 1 37.253 35.228 17.431 
315 4 1 39.654 34.320 17.716 
316 4 1 42.008 33.317 18.203 
317 4 1 44.271 32.317 18.861 
318 4 1 46.180 31.665 20.191 
319 4 1 47.746 31.436 22.225 
320 4 1 49.265 31.386 24.326 
321 4 1 47.945 31.367 26.310 
322 4 1 46.566 33.424 27.025 
323 4 1 44.971 35.088 28.123 
324 4 1 44.285 37.229 29.039 
325 4 1 43.910 39.092 27.271 
326 4 1 44.646 38.891 25.077 
327 4 1 45.477 37.999 23.097 
328 4 1 47.318 36.838 21.728 
329 4 1 49.061 35.557 20.320 
330 4 1 51.259 34.342 21.010 
331 4 1 -0.639 33.773 22.610 
332 4 1  0.522 32.963 24.566 
333 4 1  1.683 32.482 26.521 
334 4 1  3.497 33.204 28.303 
335 4 1  6.076 32.913 28.308 
336 4 1  8.096 32.635 27.433 
337 4 1  8.831 31.026 25.939 
338 4 1  9.198 28.681 24.899 
339 4 1  7.750 26.749 25.721 
340 4 1  6.102 25.089 26.704 
341 4 1  4.270 23.371 27.515 
342 4 1  2.469 23.332 26.064 
343 4 1  0.989 23.920 24.126 
344 4 1 -1.111 24.403 23.202 
345 4 1 50.314 25.397 22.178 
346 4 1 48.725 26.545 20.532 
347 4 1 47.025 27.475 18.923 
348 4 1 44.876 27.588 18.161 
349 4 1 44.543 25.831 16.305 
350 4 1 45.348 24.645 14.541 
351 4 1 47.191 23.934 12.953 
352 4 1 49.112 23.379 11.353 
353 4 1 51.156 21.946 12.122 
354 4 1 -0.214 20.636 13.031 
355 4 1  1.877 19.457 13.927 
356 4 1  3.760 17.977 14.817 
357 4 1  6.045 18.752 15.807 
358 4 1  8.453 19.435 16.595 
359 4 1  9.667 20.287 18.355 
360 4 1 10.992 20.307 20.337 
361 4 1 12.965 19.535 21.877 
362 4 1 14.884 18.466 23.436 
363 5 1 -0.363 23.706 44.068 
364 5 1  2.132 23.691 44.683 
365 5 1  4.490 23.879 45.463 
366 5 1  6.846 24.083 46.469 
367 5 1  8.946 24.442  2.617 
368 5 1 10.831 24.833  4.167 
369 5 1 12.848 25.384  5.682 
370 5 1 15.025 25.489  7.001 
371 5 1 17.081 25.558  8.605 
372 5 1 19.085 25.971 10.279 
373 5 1 20.852 26.653 11.975 
374 5 1 22.135 26.477 13.800 
375 5 1 23.288 25.087 15.586 
376 5 1 24.610 24.587 17.470 
377 5 1 25.815 23.877 19.360 
378 5 1 26.483 22.147 21.189 
379 5 1 25.243 19.995 21.645 
380 5 1 24.170 17.830 22.336 
381 5 1 23.080 15.450 22.476 
382 5 1 22.244 12.949 22.505 
383 5 1 21.619 10.411 22.815 
384 5 1 20.819  7.937 22.708 
385 5 1 19.764  5.619 22.384 
386 5 1 18.653  3.365 22.195 
387 5 1 17.413  1.128 21.951 
388 5 1 15.905 47.250 21.613 
389 5 1 15.313 47.456 19.385 
390 5 1 14.479 48.452 17.145 
391 5 1 13.867 49.163 14.673 
392 5 1 14.109  0.663 12.463 
393 5 1 16.160  1.645 12.137 
394 5 1 17.650  3.604 12.016 
395 5 1 19.088  5.666 12.249 
396 5 1 20.808  7.576 12.145 
397 5 1 20.596 10.083 11.792 
398 5 1 21.123 12.478 12.022 
399 5 1 22.326 14.183 10.884 
400 5 1 20.880 16.372 10.848 
401 5 1 19.021 16.338  9.445 
402 5 1 16.728 15.699  8.522 
403 5 1 14.218 15.524  7.771 
404 5 1 11.782 15.432  7.060 
405 5 1  9.420 14.542  6.239 
406 5 1  7.131 14.006  5.087 
407 5 1  4.730 13.620  4.063 
408 5 1  4.477 11.337  3.842 
409 5 1  6.355  9.517  3.338 
410 5 1  8.483  9.929  1.835 
411 5 1 10.345 10.309 45.373 
412 5 1 11.852 11.527 44.143 
413 5 1 12.897 13.395 42.742 
414 5 1 14.653 14.558 42.470 
415 5 1 16.736 15.350 43.726 
416 5 1 18.968 15.531 45.116 
417 5 1 21.217 15.813 46.287 
418 5 1 23.235 17.011 46.783 
419 5 1 25.253 18.115 46.311 
420 5 1 27.385 18.826 45.684 
421 5 1 29.047 20.515 44.593 
422 5 1 30.319 22.221 43.186 
423 5 1 31.398 24.236 41.850 
424 5 1 32.331 26.530 40.885 
425 5 1 31.227 28.584 39.605 
426 5 1 32.374 30.604 38.411 
427 5 1 33.266 32.768 37.334 
428 5 1 33.496 34.774 35.809 
429 5 1 33.379 36.904 34.479 
430 5 1 33.441 39.143 34.251 
431 5 1 33.845 41.532 35.172 
432 5 1 33.734 44.066 35.718 
433 5 1 33.381 46.621 35.977 
434 5 1 34.106 48.793 36.381 
435 5 1 35.790  2.440 37.010 
436 5 1 37.322  4.397 37.659 
437 5 1 39.435  5.730 37.902 
438 5 1 41.668  6.973 38.117 
439 5 1 43.994  8.158 38.193 
440 5 1 45.833  9.720 38.118 
441 6 1 36.286 31.269 25.604 
442 6 1 36.585 30.015 27.850 
443 6 1 36.989 28.517 29.968 
444 6 1 38.635 26.948 29.902 
445 6 1 40.119 25.911 28.304 
446 6 1 39.675 26.575 25.763 
447 6 1 38.296 26.948 23.958 
448 6 1 35.816 27.222 23.175 
449 6 1 33.405 27.896 22.433 
450 6 1 31.234 28.340 23.782 
451 6 1 31.121 30.434 24.993 
452 6 1 32.106 31.938 26.747 
453 6 1 33.313 33.702 27.558 
454 6 1 34.366 35.997 26.847 
455 6 1 34.745 38.418 26.138 
456 6 1 34.304 40.625 26.008 
457 6 1 32.526 42.425 26.592 
458 6 1 30.472 43.855 27.381 
459 6 1 28.160 43.810 26.385 
460 6 1 26.250 45.375 26.971 
461 6 1 25.370 47.159 28.014 
462 6 1 25.964 47.138 30.387 
463 6 1 27.211 47.101 32.615 
464 6 1 28.196 46.410 34.605 
465 6 1 28.351 44.518 36.466 
466 6 1 28.569 41.945 36.079 
467 6 1 28.865 39.441 35.820 
468 6 1 29.136 36.984 35.446 
469 6 1 28.947 34.449 35.225 
470 6 1 29.059 31.818 35.237 
471 6 1 29.468 29.258 35.256 
472 6 1 29.525 27.082 34.380 
473 6 1 29.175 25.315 32.636 
474 6 1 29.671 23.320 31.491 
475 6 1 31.216 21.350 31.005 
476 6 1 32.498 20.448 28.936 
477 6 1 33.305 19.320 26.838 
478 6 1 33.823 17.730 24.895 
479 6 1 34.124 15.861 23.123 
480 6 1 36.074 14.279 23.368 
481 6 1 37.698 12.262 23.604 
482 6 1 36.938  9.811 23.177 
483 6 1 36.459  7.264 22.875 
484 6 1 35.999  4.721 22.477 
485 6 1 35.058  2.404 22.110 
486 6 1 34.144  0.098 21.478 
487 6 1 33.330 45.896 20.787 
488 6 1 32.514 46.064 18.658 
489 6 1 32.315 46.954 16.291 
490 6 1 31.922 48.316 14.169 
491 6 1 31.918  1.475 11.887 
492 6 1 31.627  3.955 11.756 
493 6 1 30.429  5.785 12.185 
494 6 1 29.370  7.048 13.812 
495 6 1 28.937  8.354 15.973 
496 6 1 27.685  9.208 17.812 
497 6 1 26.562  7.521 19.427 
498 6 1 25.557  5.904 20.974 
499 6 1 24.343  4.288 22.563 
500 6 1 22.979  2.720 24.178 
501 6 1 21.978  1.620 26.220 
502 6 1 19.699  0.557 26.585 
503 6 1 17.397 47.903 27.277 
504 6 1 15.524 46.617 27.256 
505 6 1 14.011 44.969 25.867 
506 6 1 14.812 43.699 23.732 
507 6 1 15.877 42.316 21.890 
508 6 1 16.620 41.905 19.702 
509 6 1 14.822 42.788 17.981 
510 6 1 15.248 43.435 15.462 
511 6 1 16.643 43.922 13.625 
512 6 1 18.646 43.942 12.162 
513 6 1 20.971 42.929 12.953 
514 6 1 23.084 41.752 13.640 
515 6 1 25.237 40.436 14.096 
516 6 1 26.509 41.159 15.991 
517 6 1 26.869 41.450 18.516 
518 6 1 25.247 41.367 20.587 
519 7 1  7.203  4.683  3.916 
520 7 1  5.378  4.196  5.491 
521 7 1  3.424  4.742  7.071 
522 7 1  2.340  7.000  7.322 
523 7 1  1.441  9.374  7.369 
524 7 1  0.589 11.871  7.406 
525 7 1 -0.607 14.129  7.354 
526 7 1 -2.269 16.103  7.581 
527 7 1 49.285 17.687  7.286 
528 7 1 49.556 20.129  6.892 
529 7 1 49.948 22.598  6.742 
530 7 1 49.275 23.994  4.714 
531 7 1 49.713 25.032  2.657 
532 7 1 -1.088 25.837  2.508 
533 7 1  0.788 26.408  3.514 
534 7 1  2.547 26.259  5.388 
535 7 1  4.192 26.075  7.435 
536 7 1  5.846 25.888  9.351 
537 7 1  7.726 25.706 11.038 
538 7 1  7.705 25.370 13.596 
539 7 1  6.610 24.547 15.467 
540 7 1  4.472 23.720 16.732 
541 7 1  2.234 23.035 17.863 
542 7 1  0.826 21.934 19.454 
543 7 1  2.409 20.064 20.103 
544 7 1  4.401 18.643 20.586 
545 7 1  6.602 17.505 21.363 
546 7 1  8.845 16.517 22.064 
547 7 1 11.065 15.443 22.662 
548 7 1 13.223 14.190 23.047 
549 7 1 15.306 12.852 23.688 
550 7 1 17.469 13.308 22.369 
551 7 1 18.510 15.113 21.383 
552 7 1 19.236 17.558 20.912 
553 7 1 19.893 19.944 20.589 
554 7 1 20.081 21.938 19.566 
555 7 1 19.395 23.589 17.695 
556 7 1 18.298 25.226 15.893 
557 7 1 15.932 24.867 14.901 
558 7 1 14.726 26.417 13.314 
559 7 1 13.380 27.425 11.475 
560 7 1 11.778 28.099  9.659 
561 7 1  9.908 28.125  7.779 
562 7 1  8.379 28.255  5.803 
563 7 1  6.677 28.114  3.724 
564 7 1  5.145 28.138  1.716 
565 7 1  3.587 28.554 45.042 
566 7 1  1.828 28.997 43.172 
567 7 1 -0.494 27.944 43.061 
568 7 1 -2.100 29.253 44.328 
569 7 1 50.421 30.162 46.310 
570 7 1 49.451 30.354  3.380 
571 7 1 48.632 30.598  5.834 
572 7 1 49.912 28.984  7.199 
573 7 1 -1.839 27.025  7.757 
574 7 1 -0.670 24.848  8.402 
575 7 1  0.358 22.447  8.575 
576 7 1  1.077 20.032  9.088 
577 7 1  1.955 17.656  9.405 
578 7 1  3.162 15.399  9.460 
579 7 1  4.592 13.253  9.480 
580 7 1  5.709 10.954  8.959 
581 7 1  6.556  8.747  7.828 
582 7 1  8.144  7.065  7.778 
583 7 1  9.931  5.434  7.798 
584 7 1 11.483  3.515  7.489 
585 7 1 11.594  1.246  8.690 
586 7 1 10.753 47.162  7.629 
587 7 1  9.844 44.759  6.967 
588 7 1  8.703 43.060  5.792 
589 7 1  7.925 41.904  3.541 
590 7 1  7.359 40.696  1.287 
591 7 1  6.091 40.024 44.654 
592 7 1  5.057 41.470 42.867 
593 7 1  3.795 43.318 41.553 
594 7 1  2.399 45.421 42.187 
595 7 1  1.268 47.599 43.024 
596 7 1 -0.964 48.610 42.306 
597 8 1 12.360 11.059 17.347 
598 8 1 13.396 12.959 18.737 
599 8 1 14.336 15.251 18.970 
600 8 1 15.496 17.540 19.051 
601 8 1 16.262 19.273 17.329 
602 8 1 17.105 20.491 15.168 
603 8 1 17.178 21.157 12.827 
604 8 1 16.188 21.077 10.439 
605 8 1 15.015 20.653  8.156 
606 8 1 12.631 19.811  7.631 
607 8 1 10.159 19.245  6.941 
608 8 1  7.719 18.608  6.276 
609 8 1  5.354 17.971  5.690 
610 8 1  2.874 17.376  5.060 
611 8 1  0.350 16.885  4.296 
612 8 1  0.006 15.029  2.953 
613 8 1 -0.028 12.471  2.641 
614 8 1 -0.166 10.091  1.995 
615 8 1  1.415  8.184  2.332 
616 8 1  3.040  6.215  2.210 
617 8 1  2.694  3.680  1.976 
618 8 1  2.317  1.140 46.938 
619 8 1  2.000 46.899  2.060 
620 8 1  2.162 44.446  2.659 
621 8 1  2.715 41.961  3.199 
622 8 1  2.954 39.463  3.673 
623 8 1  2.648 37.394  4.828 
624 8 1  1.886 35.789  6.650 
625 8 1  0.768 34.226  8.466 
626 8 1  0.456 31.814  9.353 
627 8 1  0.562 29.389 10.079 
628 8 1  2.865 28.435 10.918 
629 8 1  3.902 28.459 13.338 
630 8 1  4.978 28.471 15.645 
631 8 1  6.097 29.676 17.388 
632 8 1  7.528 30.805 15.750 
633 8 1  8.094 30.898 13.313 
634 8 1  8.179 30.695 10.741 
635 8 1  6.314 30.883  9.030 
636 8 1  4.522 31.064  7.197 
637 8 1  2.667 31.567  5.581 
638 8 1  0.496 32.322  4.298 
639 8 1  0.558 34.146  2.505 
640 8 1  0.730 36.211 46.209 
641 8 1  0.955 38.388 44.877 
642 8 1  1.444 40.950 44.556 
643 8 1 -0.406 42.811 44.656 
644 8 1 -2.302 44.567 44.733 
645 8 1 49.104 45.516 44.021 
646 8 1 47.439 46.988 42.923 
647 8 1 45.719 48.882 43.284 
648 8 1 45.894  1.682 45.450 
649 8 1 46.124 47.794 47.094 
650 8 1 46.895 45.907  3.372 
651 8 1 45.635 44.279  4.914 
652 8 1 44.368 42.405  6.118 
653 8 1 43.235 40.514  7.372 
654 8 1 41.683 38.661  8.159 
655 8 1 39.840 36.951  8.718 
656 8 1 38.010 35.245  8.839 
657 8 1 37.686 34.722  6.506 
658 8 1 38.597 34.840  4.283 
659 8 1 40.703 36.323  3.600 
660 8 1 42.876 37.645  3.113 
661 8 1 45.115 38.836  3.172 
662 8 1 47.654 39.528  3.143 
663 8 1 50.206 40.092  3.095 
664 8 1 -1.143 40.918  4.038 
665 8 1 -0.602 40.049  6.373 
666 8 1  0.539 39.427  8.554 
667 8 1  1.773 39.197 10.788 
668 8 1  3.039 39.039 13.028 
669 8 1  3.724 38.288 15.163 
670 8 1  4.420 36.670 17.008 
671 8 1  4.871 34.958 18.902 
672 8 1  3.363 33.080 19.039 
673 8 1  1.814 31.570 18.379 
674 8 1  0.183 29.821 17.704 
675 9 1 18.830  4.631 16.751 
676 9 1 18.629  2.176 16.490 
677 9 1 19.094 47.826 16.807 
678 9 1 19.241 45.239 16.767 
679 9 1 21.100 44.064 17.471 
680 9 1 23.277 44.380 18.177 
681 9 1 24.798 45.757 17.149 
682 9 1 23.887 47.190 15.237 
683 9 1 22.803 48.690 13.642 
684 9 1 23.428  0.119 11.310 
685 9 1 24.011 47.043  9.164 
686 9 1 24.161 44.535  8.905 
687 9 1 24.517 42.005  8.966 
688 9 1 25.076 39.563  9.514 
689 9 1 25.757 37.252 10.354 
690 9 1 26.400 34.820 11.142 
691 9 1 27.536 32.853 12.396 
692 9 1 28.644 30.852 13.474 
693 9 1 30.102 28.948 14.415 
694 9 1 31.595 27.185 15.419 
695 9 1 33.358 25.653 16.613 
696 9 1 35.343 24.549 15.505 
697 9 1 37.563 23.555 14.708 
698 9 1 39.506 23.490 13.511 
699 9 1 41.436 24.316 12.114 
700 9 1 41.174 25.488 10.138 
701 9 1 40.440 25.676  7.665 
702 9 1 39.528 25.732  5.290 
703 9 1 38.856 25.566  2.813 
704 9 1 38.183 25.105 45.637 
705 9 1 37.612 24.144 43.338 
706 9 1 36.864 23.602 40.936 
707 9 1 35.999 22.834 38.623 
708 9 1 35.018 22.122 36.351 
709 9 1 32.801 21.008 35.767 
710 9 1 31.114 22.553 35.694 
711 9 1 29.065 22.223 37.305 
712 9 1 28.409 23.520 39.364 
713 9 1 27.473 25.976 39.421 
714 9 1 26.814 28.537 39.877 
715 9 1 26.553 31.035 40.117 
716 9 1 27.516 33.263 40.361 
717 9 1 29.410 34.922 40.204 
718 9 1 31.477 36.472 39.784 
719 9 1 33.776 37.447 39.382 
720 9 1 35.526 38.969 39.144 
721 9 1 36.377 41.377 38.838 
722 9 1 37.351 43.722 38.549 
723 9 1 38.115 46.110 38.184 
724 9 1 39.118 47.999 37.235 
725 9 1 40.324  1.248 35.520 
726 9 1 41.775  2.886 34.820 
727 9 1 43.686  4.618 35.324 
728 9 1 46.078  4.268 36.253 
729 9 1 47.868  2.801 36.871 
730 9 1 49.166  0.693 37.483 
731 9 1 50.473 46.784 38.274 
732 9 1 -1.479 44.755 38.943 
733 9 1  0.180 42.873 38.921 
734 9 1  1.900 40.907 38.565 
735 9 1  2.053 40.344 36.209 
736 9 1  2.322 40.748 33.669 
737 9 1  2.124 42.199 31.540 
738 9 1  1.966 43.671 29.414 
739 9 1  1.729 45.157 27.318 
740 9 1  1.604 46.368 25.038 
741 9 1  1.439 47.343 22.633 
742 9 1  0.764 48.114 20.338 
743 9 1 -0.265  0.844 18.202 
744 9 1  0.375  2.727 16.550 
745 9 1 -0.749  2.243 14.428 
746 9 1 -2.216  0.894 12.711 
747 9 1 50.512 46.648 12.899 
748 9 1 50.192 44.096 12.915 
749 9 1 50.368 41.578 12.859 
750 9 1 50.411 39.000 12.809 
751 9 1 50.622 36.378 12.573 
752 9 1 49.319 34.618 11.327 
753 10 1 11.865 25.597 24.239 
754 10 1 14.148 26.430 25.126 
755 10 1 16.461 27.125 25.907 
756 10 1 16.780 29.410 27.013 
757 10 1 16.725 31.646 28.210 
758 10 1 16.432 33.864 29.453 
759 10 1 15.672 35.100 31.141 
760 10 1 14.712 35.264 33.494 
761 10 1 13.526 35.422 35.904 
762 10 1 12.278 35.947 38.064 
763 10 1 13.346 36.249 40.398 
764 10 1 13.988 36.728 42.780 
765 10 1 12.409 38.311 43.591 
766 10 1 10.684 40.228 43.439 
767 10 1  9.892 40.521 41.136 
768 10 1  9.470 39.865 38.628 
769 10 1  9.440 38.744 36.330 
770 10 1  9.342 37.853 33.947 
771 10 1  9.668 36.243 32.182 
772 10 1 10.948 34.226 31.064 
773 10 1 12.303 32.382 29.856 
774 10 1 11.533 30.045 29.362 
775 10 1 11.158 27.579 28.861 
776 10 1 10.687 25.048 28.473 
777 10 1 10.112 22.516 28.044 
778 10 1  9.400 20.036 27.687 
779 10 1  8.386 17.638 27.287 
780 10 1  6.962 15.562 26.800 
781 10 1  5.094 14.016 25.916 
782 10 1  3.444 13.605 24.405 
783 10 1  1.798 15.449 24.156 
784 10 1  0.481 17.636 23.935 
785 10 1 -0.903 19.383 24.583 
786 10 1 51.146 20.792 26.289 
787 10 1 50.156 22.413 28.099 
788 10 1 49.361 23.987 30.008 
789 10 1 48.717 25.709 31.963 
790 10 1 47.978 27.172 33.951 
791 10 1 46.977 28.787 35.692 
792 10 1 45.356 30.051 36.692 
793 10 1 42.942 30.104 37.522 
794 10 1 40.602 30.232 37.029 
795 10 1 38.477 30.846 35.943 
796 10 1 36.157 30.947 34.638 
797 10 1 34.566 31.417 32.726 
798 10 1 32.775 29.961 31.776 
799 10 1 30.850 28.552 30.950 
800 10 1 30.705 27.143 28.835 
801 10 1 30.227 25.828 26.661 
802 10 1 30.678 24.232 25.156 
803 10 1 31.192 22.547 23.674 
804 10 1 30.468 20.483 22.432 
805 10 1 29.805 18.317 21.300 
806 10 1 30.241 16.162 20.754 
807 10 1 31.860 14.768 19.911 
808 10 1 33.865 14.059 18.552 
809 10 1 36.018 13.515 17.246 
810 10 1 36.089 14.736 15.302 
811 10 1 35.029 15.354 12.951 
812 10 1 33.536 16.260 11.000 
813 10 1 32.128 17.521  9.354 
814 10 1 31.293 19.495  8.474 
815 10 1 31.228 21.935  7.724 
816 10 1 30.267 23.688  6.593 
817 10 1 30.286 23.186  4.073 
818 10 1 29.299 24.530  2.113 
819 10 1 28.752 26.017 45.314 
820 10 1 27.795 27.981 44.260 
821 10 1 26.797 30.349 44.565 
822 10 1 26.008 30.194 46.729 
823 10 1 26.244 28.979  3.661 
824 10 1 26.825 27.637  5.808 
825 10 1 28.627 27.480  7.547 
826 10 1 30.398 27.341  9.357 
827 10 1 30.942 25.298 10.830 
828 10 1 31.937 23.192 12.175 
829 10 1 33.299 21.544 13.644 
830 10 1 35.211 19.860 12.996 
831 11 1 28.352 19.566 12.358 
832 11 1 30.118 18.122 13.342 
833 11 1 31.601 17.663 15.056 
834 11 1 33.012 18.196 17.145 
835 11 1 35.004 18.620 18.345 
836 11 1 37.462 18.389 18.920 
837 11 1 38.719 16.186 19.566 
838 11 1 40.242 14.069 20.055 
839 11 1 41.616 12.731 18.347 
840 11 1 42.036 10.315 17.435 
841 11 1 43.727 10.684 15.681 
842 11 1 44.743 12.055 14.035 
843 11 1 45.150 13.558 11.999 
844 11 1 46.110 13.970  9.880 
845 11 1 47.162 13.514  7.598 
846 11 1 48.124 12.715  5.389 
847 11 1 48.939 12.727  3.117 
848 11 1 49.272 14.180 46.177 
849 11 1 49.567 15.653 44.014 
850 11 1 47.638 16.121 42.314 
851 11 1 45.832 16.267 40.590 
852 11 1 43.595 17.058 39.647 
853 11 1 41.861 16.724 37.863 
854 11 1 40.699 14.650 38.889 
855 11 1 40.993 12.690 40.219 
856 11 1 42.119 10.833 41.355 
857 11 1 44.361 11.091 42.647 
858 11 1 45.565 10.698 44.667 
859 11 1 45.644  8.410 45.326 
860 11 1 47.137  6.716 43.934 
861 11 1 47.491  5.069 42.264 
862 11 1 45.705  5.422 40.644 
863 11 1 44.323  3.333 39.920 
864 11 1 43.636  1.284 38.863 
865 11 1 44.074 47.247 37.614 
866 11 1 44.710 46.984 35.097 
867 11 1 44.847 47.627 32.804 
868 11 1 45.323 48.258 30.586 
869 11 1 46.307 48.177 28.257 
870 11 1 47.337 48.060 25.897 
871 11 1 48.184 48.098 23.461 
872 11 1 48.659 49.300 21.560 
873 11 1 50.186  2.974 22.256 
874 11 1 -1.836  4.796 23.279 
875 11 1 -0.959  6.699 24.774 
876 11 1  0.003  8.620 26.292 
877 11 1  1.079 10.414 27.794 
878 11 1  0.220 12.877 28.047 
879 11 1 -1.211 14.645 27.280 
880 11 1 50.060 15.660 26.129 
881 11 1 48.180 14.458 26.499 
882 11 1 46.281 12.951 26.787 
883 11 1 45.200 10.857 26.998 
884 11 1 44.362  8.626 26.957 
885 11 1 42.875  6.732 25.913 
886 11 1 41.435  4.888 24.806 
887 11 1 40.338  2.857 23.621 
888 11 1 39.456  0.650 22.693 
889 11 1 38.701 46.529 22.013 
890 11 1 37.299 44.386 21.556 
891 11 1 36.185 42.140 20.915 
892 11 1 35.282 40.009 21.433 
893 11 1 36.926 38.072 21.457 
894 11 1 38.841 36.350 21.296 
895 11 1 39.731 34.672 23.064 
896 11 1 41.165 33.262 24.622 
897 11 1 42.505 31.682 26.095 
898 11 1 43.397 29.668 27.460 
899 11 1 43.863 27.447 28.776 
900 11 1 44.424 25.327 30.046 
901 11 1 43.109 23.062 30.086 
902 11 1 42.810 21.068 31.710 
903 11 1 42.493 19.160 33.404 
904 11 1 41.037 17.005 33.341 
905 11 1 39.550 14.821 33.403 
906 11 1 38.144 12.654 33.139 
907 11 1 37.477 10.998 35.121 
908 11 1 36.724  9.701 37.261 
909 12 1 19.774 42.718 41.226 
910 12 1 18.981 44.573 42.727 
911 12 1 17.700 46.406 43.599 
912 12 1 15.637 48.071 43.756 
913 12 1 13.534  1.416 43.949 
914 12 1 11.684  3.090 44.396 
915 12 1  9.813  4.885 44.388 
916 12 1  7.659  6.329 44.344 
917 12 1  5.601  7.741 43.934 
918 12 1  3.611  9.301 43.261 
919 12 1  2.686  9.260 40.939 
920 12 1  2.364  9.243 38.602 
921 12 1  2.828  9.897 36.142 
922 12 1  5.135 10.349 35.111 
923 12 1  7.540 10.480 35.098 
924 12 1  9.945  9.910 35.954 
925 12 1 12.386  9.536 36.597 
926 12 1 14.847  9.943 36.825 
927 12 1 17.380 10.112 37.195 
928 12 1 19.894  9.731 37.615 
929 12 1 21.731 11.162 38.827 
930 12 1 21.992 11.745 41.324 
931 12 1 22.314 12.957 43.549 
932 12 1 23.675 11.700 45.197 
933 12 1 22.143 10.783 46.937 
934 12 1 22.979  9.416  3.663 
935 12 1 21.705  8.173  5.523 
936 12 1 20.107  7.004  7.116 
937 12 1 20.122  4.538  8.053 
938 12 1 20.144  1.943  8.401 
939 12 1 18.348  0.035  8.441 
940 12 1 16.590 46.503  8.757 
941 12 1 14.819 44.752  9.423 
942 12 1 12.846 43.140  9.908 
943 12 1 11.819 42.518 12.195 
944 12 1 11.302 41.756 14.576 
945 12 1 10.741 40.865 16.949 
946 12 1 10.006 40.439 19.319 
947 12 1  9.088 41.221 21.390 
948 12 1  9.619 43.497 21.057 
949 12 1 10.576 45.520 20.267 
950 12 1 11.407 45.772 17.882 
951 12 1  9.712 46.412 15.909 
952 12 1  9.439 48.399 14.309 
953 12 1  9.586  2.381 13.458 
954 12 1 10.248  4.842 12.645 
955 12 1 12.451  5.660 11.688 
956 12 1 14.358  6.346 10.199 
957 12 1 15.636  6.490  7.894 
958 12 1 14.467  6.430  5.532 
959 12 1 13.576  6.390  3.099 
960 12 1 15.037  5.845 46.249 
961 12 1 16.635  4.593 45.099 
962 12 1 18.544  2.938 45.173 
963 12 1 20.097  1.221 44.683 
964 12 1 22.351  1.301 44.138 
965 12 1 24.744  1.560 43.756 
966 12 1 26.666  3.013 43.445 
967 12 1 28.472  4.502 44.378 
968 12 1 30.566  5.784 45.311 
969 12 1 31.843  5.531 47.516 
970 12 1 32.813  5.097  4.602 
971 12 1 33.392  4.552  6.986 
972 12 1 34.943  6.146  8.397 
973 12 1 36.917  7.275  8.758 
974 12 1 38.796  8.853  8.176 
975 12 1 40.840 10.219  7.255 
976 12 1 41.928 10.321  4.903 
977 12 1 42.410  9.692  2.745 
978 12 1 40.456  9.470 46.259 
979 12 1 38.416  9.261 44.565 
980 12 1 36.658  9.896 43.148 
981 12 1 35.036 11.414 41.934 
982 12 1 35.914 13.496 40.718 
983 12 1 35.855 14.119 38.211 
984 12 1 37.116 16.306 37.464 
985 12 1 38.422 18.435 36.893 
986 12 1 39.607 20.361 37.452 