LAMMPS data file generated by aa2cg.

2000 atoms
1 atom types
1975 bonds
1 bond types
1950 angles
1 angle types
1925 dihedrals
1 dihedral types

 0.000 48.287 xlo xhi
 0.000 48.071 ylo yhi
 0.000 50.183 zlo zhi

Masses

1 24.022

Atoms # molecular

1 1 1  1.310  1.480  2.223 
2 1 1 11.300  3.595 28.251 
3 2 1 18.028 11.352 25.157 
4 2 1 38.487 29.638 48.546 
5 3 1 13.773 28.613  2.193 
6 3 1 13.641 34.610  3.391 
7 4 1 22.342 47.404 35.338 
8 4 1 12.322  2.062 12.995 
9 5 1 38.345  4.353  1.601 
10 5 1  6.217 15.784  3.010 
11 6 1 16.662 38.416 43.483 
12 6 1 12.799 14.522  6.762 
13 7 1 43.988 47.587 34.039 
14 7 1  4.896  2.789 -0.629 
15 8 1  8.458  8.110 32.593 
16 8 1 10.148 35.767 34.603 
17 9 1 43.676 44.472 28.862 
18 9 1 11.302 11.000 19.693 
19 10 1 36.561  2.341 28.769 
20 10 1 21.028 38.864 44.076 
21 11 1 39.892 45.107 18.551 
22 11 1 41.455 14.789 -0.331 
23 12 1  9.259  0.487 47.716 
24 12 1  3.675 24.043 28.415 
25 13 1  8.758 43.609  2.081 
26 13 1 20.963 20.008  4.163 
27 14 1 19.611 41.865 38.604 
28 14 1 15.658 21.512 14.120 
29 15 1  5.662 46.927 26.086 
30 15 1 17.062  9.307 20.697 
31 16 1 30.106  5.016 42.582 
32 16 1 33.093 13.988 36.349 
33 17 1 12.746 40.621 23.301 
34 17 1 38.298 32.763 44.083 
35 18 1  8.796  5.306  6.807 
36 18 1 27.662  3.270  9.480 
37 19 1 13.642 38.467 38.039 
38 19 1 15.468 26.233 19.983 
39 20 1 28.198  5.810 48.823 
40 20 1 22.591 12.217 42.360 
41 21 1 16.265 18.384 19.052 
42 21 1 24.545  0.850 13.184 
43 22 1 33.374  2.234 43.887 
44 22 1 44.851 26.239 39.173 
45 23 1 25.187  7.508 42.858 
46 23 1  1.532 33.422 25.419 
47 24 1 21.700 33.755 46.110 
48 24 1 18.257  7.546 28.478 
49 25 1 18.533 12.643 13.550 
50 25 1  3.066 19.777  3.351 
51 1 1  0.828 47.105  2.929 
52 1 1  0.491 44.613  3.521 
53 1 1 48.198 42.150  3.867 
54 1 1 47.654 39.636  4.083 
55 1 1 47.237 37.142  4.425 
56 1 1 46.679 34.684  5.083 
57 1 1 46.895 32.475  3.595 
58 1 1 45.041 30.907  2.827 
59 1 1 42.884 30.004  2.753 
60 1 1 40.449 30.441  3.324 
61 1 1 38.026 31.052  3.470 
62 1 1 36.939 33.063  4.871 
63 1 1 37.039 35.123  5.822 
64 1 1 38.001 37.487  6.412 
65 1 1 38.997 39.901  6.809 
66 1 1 39.351 42.350  7.417 
67 1 1 39.419 44.842  8.134 
68 1 1 39.227 47.151  9.342 
69 1 1 38.079  0.880 10.452 
70 1 1 35.566 48.537  9.964 
71 1 1 33.094 48.190  9.226 
72 1 1 30.778 47.659  8.149 
73 1 1 29.438 48.821  6.300 
74 1 1 28.088  1.672  4.349 
75 1 1 26.651  2.191  2.241 
76 1 1 25.180  3.005  0.363 
77 1 1 23.586  3.883 48.777 
78 1 1 21.777  4.834 47.181 
79 1 1 20.985  6.257 45.405 
80 1 1 22.072  8.518 45.932 
81 1 1 23.244  9.970 47.267 
82 1 1 24.814 10.688 49.192 
83 1 1 26.669 11.303  0.717 
84 1 1 27.041 10.727  3.143 
85 1 1 27.340 10.198  5.666 
86 1 1 29.666 10.312  6.836 
87 1 1 31.837  9.916  8.088 
88 1 1 34.050  9.692  9.243 
89 1 1 35.887 10.404 10.696 
90 1 1 37.837 11.516 11.128 
91 1 1 40.060 12.577 10.404 
92 1 1 42.012 13.945  9.465 
93 1 1 44.124 14.670  8.275 
94 1 1 44.645 13.577  6.052 
95 1 1 44.478 12.392  3.850 
96 1 1 42.294 11.749  3.238 
97 1 1 40.065 10.730  4.091 
98 1 1 39.530  9.395  6.241 
99 1 1 38.317  7.125  6.374 
100 1 1 37.601  4.677  6.479 
101 1 1 36.971  2.154  6.229 
102 1 1 36.382 47.809  5.603 
103 1 1 35.742 45.352  5.028 
104 1 1 35.160 42.863  4.759 
105 1 1 34.418 40.402  4.856 
106 1 1 33.398 38.035  4.497 
107 1 1 31.335 37.402  3.113 
108 1 1 28.839 36.808  3.467 
109 1 1 26.672 37.061  4.239 
110 1 1 24.677 37.440  5.427 
111 1 1 22.677 36.632  6.853 
112 1 1 20.754 35.483  7.997 
113 1 1 20.724 34.570 10.350 
114 1 1 20.312 33.762 12.678 
115 1 1 19.602 32.754 14.912 
116 1 1 18.894 31.808 17.265 
117 1 1 18.322 31.154 19.687 
118 1 1 17.907 30.487 22.207 
119 1 1 16.205 31.281 23.645 
120 1 1 14.976 33.022 25.054 
121 1 1 13.862 35.086 26.191 
122 1 1 12.607 37.230 26.926 
123 1 1 13.491 39.484 27.398 
124 1 1 14.347 41.895 27.659 
125 1 1 14.878 44.368 27.988 
126 1 1 15.161 46.845 28.687 
127 1 1 15.410 49.291 29.438 
128 1 1 13.640  2.588 28.563 
129 2 1 20.075 10.331 25.180 
130 2 1 21.740  8.934 23.895 
131 2 1 23.453  8.684 22.330 
132 2 1 25.218  8.253 20.906 
133 2 1 27.215  7.231 20.239 
134 2 1 29.843  7.212 20.498 
135 2 1 32.367  6.765 21.243 
136 2 1 34.493  5.750 22.101 
137 2 1 36.383  4.572 23.296 
138 2 1 38.500  3.904 24.457 
139 2 1 40.822  3.779 25.364 
140 2 1 41.892  5.065 27.380 
141 2 1 41.729  6.370 29.311 
142 2 1 40.423  7.635 31.188 
143 2 1 38.825  8.879 32.876 
144 2 1 37.997 10.726 34.010 
145 2 1 38.508 13.060 34.821 
146 2 1 40.143 14.718 33.599 
147 2 1 42.102 15.038 32.557 
148 2 1 42.149 13.604 30.424 
149 2 1 42.623 12.120 28.362 
150 2 1 42.300 10.842 26.491 
151 2 1 40.604  9.608 24.912 
152 2 1 39.400  8.449 22.981 
153 2 1 38.948  8.280 20.720 
154 2 1 38.163  8.723 18.659 
155 2 1 36.298  9.531 17.148 
156 2 1 34.485 10.415 15.621 
157 2 1 32.735 11.593 14.077 
158 2 1 31.665 13.422 12.477 
159 2 1 31.533 14.490 10.444 
160 2 1 31.643 14.677  7.833 
161 2 1 31.658 14.814  5.168 
162 2 1 31.580 14.599  2.592 
163 2 1 31.177 15.533  0.477 
164 2 1 28.652 15.831  0.096 
165 2 1 27.583 16.336  2.131 
166 2 1 26.340 16.105  4.499 
167 2 1 26.705 14.438  6.407 
168 2 1 26.892 13.230  8.556 
169 2 1 27.226 12.092 10.862 
170 2 1 27.443 11.211 13.292 
171 2 1 28.194 10.807 15.480 
172 2 1 29.948 11.093 17.319 
173 2 1 31.673 11.348 19.204 
174 2 1 33.311 11.646 21.251 
175 2 1 35.738 12.671 21.140 
176 2 1 38.156 13.443 21.166 
177 2 1 40.427 13.214 20.920 
178 2 1 42.554 11.932 20.534 
179 2 1 44.684 10.795 19.607 
180 2 1 46.930 10.500 19.340 
181 2 1 48.261  8.788 20.199 
182 2 1  0.439  6.583 20.738 
183 2 1  0.114  4.280 21.908 
184 2 1 -0.272  2.040 23.205 
185 2 1 47.063  0.528 21.896 
186 2 1 47.507 47.027 19.887 
187 2 1 47.219 45.231 18.556 
188 2 1 45.335 44.094 17.719 
189 2 1 43.530 42.837 16.904 
190 2 1 42.315 40.707 16.342 
191 2 1 41.153 38.601 15.579 
192 2 1 39.626 36.920 14.716 
193 2 1 37.572 35.669 14.005 
194 2 1 35.498 34.308 13.292 
195 2 1 33.533 32.771 12.988 
196 2 1 31.379 31.349 12.503 
197 2 1 29.425 29.874 12.051 
198 2 1 27.887 28.732 10.694 
199 2 1 27.132 27.815  8.478 
200 2 1 26.985 27.351  5.936 
201 2 1 27.469 27.014  3.413 
202 2 1 27.892 26.494  0.821 
203 2 1 29.363 27.793 -0.829 
204 2 1 31.234 29.114 48.726 
205 2 1 33.538 29.339 48.485 
206 2 1 35.918 29.395 48.139 
207 3 1 13.886 27.735 -0.258 
208 3 1 12.655 27.883 47.613 
209 3 1 13.693 26.691 45.616 
210 3 1 14.932 25.663 43.537 
211 3 1 16.476 24.489 41.759 
212 3 1 15.883 24.467 39.396 
213 3 1 15.299 25.481 37.184 
214 3 1 14.463 26.566 34.902 
215 3 1 15.751 28.420 33.629 
216 3 1 17.070 30.387 32.513 
217 3 1 18.368 32.457 31.910 
218 3 1 20.311 33.781 32.005 
219 3 1 22.377 34.514 31.303 
220 3 1 23.857 35.439 29.398 
221 3 1 23.032 35.845 27.085 
222 3 1 24.154 37.543 25.404 
223 3 1 22.687 38.488 23.896 
224 3 1 22.802 41.061 24.056 
225 3 1 23.473 43.109 23.262 
226 3 1 23.127 43.217 20.710 
227 3 1 22.600 43.238 18.293 
228 3 1 21.831 43.424 15.928 
229 3 1 20.865 43.874 13.628 
230 3 1 22.422 44.086 11.473 
231 3 1 24.516 44.472 10.444 
232 3 1 26.919 45.165 10.130 
233 3 1 28.349 46.883 11.465 
234 3 1 30.731 46.536 12.625 
235 3 1 32.289 45.527 14.193 
236 3 1 32.522 45.902 16.724 
237 3 1 32.898 46.444 19.199 
238 3 1 32.833 44.805 21.222 
239 3 1 32.480 43.165 23.217 
240 3 1 31.937 41.614 25.221 
241 3 1 32.301 40.296 27.003 
242 3 1 33.669 39.087 28.803 
243 3 1 34.529 36.681 29.220 
244 3 1 35.141 34.629 28.111 
245 3 1 34.990 32.828 26.298 
246 3 1 35.079 31.133 24.303 
247 3 1 34.526 29.545 22.326 
248 3 1 34.662 27.663 20.543 
249 3 1 35.002 25.678 18.921 
250 3 1 36.966 25.710 17.180 
251 3 1 38.933 26.135 15.537 
252 3 1 40.692 26.934 13.893 
253 3 1 40.910 27.102 11.355 
254 3 1 41.091 27.080  8.724 
255 3 1 39.776 26.704  6.910 
256 3 1 37.554 26.589  5.643 
257 3 1 35.670 27.359  4.354 
258 3 1 33.827 29.027  3.525 
259 3 1 31.903 30.742  2.949 
260 3 1 29.632 31.995  2.834 
261 3 1 27.486 32.295  3.721 
262 3 1 25.629 31.777  5.398 
263 3 1 23.883 31.003  7.146 
264 3 1 22.061 30.351  8.933 
265 3 1 20.597 28.941  9.999 
266 3 1 18.743 27.761  9.252 
267 3 1 18.296 27.256  6.758 
268 3 1 17.965 26.741  4.194 
269 3 1 17.559 25.468  2.218 
270 3 1 17.523 23.232  1.000 
271 3 1 17.652 21.016 -0.171 
272 3 1 17.881 18.776 48.917 
273 3 1 18.693 17.026 47.575 
274 3 1 20.041 16.102 45.471 
275 3 1 21.362 17.312 44.098 
276 3 1 20.878 19.617 44.202 
277 3 1 20.081 21.852 45.377 
278 3 1 19.310 23.991 46.632 
279 3 1 18.591 26.211 47.621 
280 3 1 18.168 28.431 48.906 
281 3 1 18.484 30.757 -0.803 
282 3 1 18.136 32.962 -1.067 
283 3 1 17.232 34.854 49.819 
284 3 1 15.518 34.641  1.557 
285 4 1 21.511  1.547 35.220 
286 4 1 21.235  2.475 37.640 
287 4 1 20.462  3.811 39.711 
288 4 1 20.548  6.293 40.356 
289 4 1 19.872  8.631 40.617 
290 4 1 18.469 10.682 40.205 
291 4 1 16.718 12.578 39.963 
292 4 1 15.859 14.804 40.058 
293 4 1 16.252 17.238 40.929 
294 4 1 17.026 19.518 41.860 
295 4 1 15.916 20.797 43.827 
296 4 1 14.897 22.116 45.718 
297 4 1 13.628 22.263 47.657 
298 4 1 12.715 22.161 49.905 
299 4 1 12.019 23.598  1.777 
300 4 1 13.513 23.988  3.837 
301 4 1 13.118 25.668  5.827 
302 4 1 14.370 25.765  8.087 
303 4 1 15.661 26.127 10.313 
304 4 1 16.755 26.009 12.526 
305 4 1 18.329 25.314 14.172 
306 4 1 20.116 23.780 15.188 
307 4 1 21.026 22.562 16.860 
308 4 1 20.615 21.542 19.205 
309 4 1 18.874 22.819 20.600 
310 4 1 18.365 22.672 23.167 
311 4 1 17.483 24.527 24.822 
312 4 1 15.141 25.326 25.460 
313 4 1 13.268 26.592 25.066 
314 4 1 12.046 28.267 23.428 
315 4 1 12.785 29.684 21.427 
316 4 1 13.249 31.346 19.494 
317 4 1 14.030 32.930 17.728 
318 4 1 14.849 34.334 15.781 
319 4 1 15.482 35.206 13.433 
320 4 1 16.113 36.145 11.102 
321 4 1 16.395 37.171  8.836 
322 4 1 17.201 37.933  6.729 
323 4 1 18.709 37.600  4.681 
324 4 1 20.199 37.474  2.640 
325 4 1 21.243 35.363  1.793 
326 4 1 22.621 33.476  0.666 
327 4 1 24.308 31.734 -0.256 
328 4 1 26.190 31.838 48.246 
329 4 1 28.116 31.712 46.580 
330 4 1 30.052 32.025 45.112 
331 4 1 31.631 32.868 43.362 
332 4 1 32.248 31.662 41.068 
333 4 1 31.921 29.935 39.623 
334 4 1 30.605 27.880 38.641 
335 4 1 29.474 25.615 38.315 
336 4 1 28.585 23.149 38.293 
337 4 1 28.150 21.115 37.392 
338 4 1 25.925 20.944 36.086 
339 4 1 23.851 20.712 34.545 
340 4 1 21.857 20.608 32.737 
341 4 1 19.826 21.207 31.934 
342 4 1 17.361 21.629 32.307 
343 4 1 14.939 22.008 32.927 
344 4 1 12.457 21.994 33.611 
345 4 1 11.195 21.013 32.037 
346 4 1  9.963 21.039 29.748 
347 4 1  8.445 21.180 27.692 
348 4 1  6.808 21.419 25.819 
349 4 1  5.353 21.972 23.778 
350 4 1  3.902 22.800 21.826 
351 4 1  4.590 24.455 19.935 
352 4 1  5.260 26.118 18.204 
353 4 1  5.775 28.082 16.510 
354 4 1  5.965 29.966 14.788 
355 4 1  5.857 32.155 13.340 
356 4 1  6.134 34.595 12.215 
357 4 1  6.762 36.749 10.983 
358 4 1  7.463 38.797  9.525 
359 4 1  8.349 41.155 10.150 
360 4 1  9.624 43.331 10.533 
361 4 1 10.573 45.634 11.149 
362 4 1 11.235 47.912 12.113 
363 5 1 39.341  6.279  0.878 
364 5 1 41.368  7.835  0.170 
365 5 1 42.820  9.715 -0.688 
366 5 1 45.269 10.474 -0.879 
367 5 1 47.571 11.422 48.709 
368 5 1  1.480 12.390 47.921 
369 5 1  3.631 13.642 47.221 
370 5 1  5.827 14.795 46.776 
371 5 1  7.942 15.531 47.444 
372 5 1  9.950 15.256 48.951 
373 5 1 10.203 13.949  1.005 
374 5 1  9.536 12.222  2.386 
375 5 1  7.715 10.516  3.074 
376 5 1  5.230 10.771  2.742 
377 5 1  2.732 10.884  2.117 
378 5 1  0.643  9.906  3.321 
379 5 1 46.769  9.155  4.540 
380 5 1 44.992  7.475  3.637 
381 5 1 43.003  6.119  4.709 
382 5 1 42.500  4.276  5.899 
383 5 1 42.261  2.550  7.295 
384 5 1 42.395  3.467  9.794 
385 5 1 42.196  4.153 12.382 
386 5 1 43.064  4.190 14.532 
387 5 1 43.499  1.826 15.495 
388 5 1 43.409  0.921 17.682 
389 5 1 42.541  0.562 20.033 
390 5 1 41.680 48.360 22.392 
391 5 1 40.949 47.811 24.755 
392 5 1 40.416 47.502 27.295 
393 5 1 39.808 47.675 29.726 
394 5 1 39.069 48.174 32.180 
395 5 1 36.799 48.172 33.257 
396 5 1 34.584 48.636 33.712 
397 5 1 33.283 47.929 31.586 
398 5 1 32.349  1.229 29.547 
399 5 1 32.244  3.209 28.159 
400 5 1 32.582  5.629 27.290 
401 5 1 33.093  7.943 26.456 
402 5 1 33.104 10.331 25.586 
403 5 1 31.528 12.291 26.020 
404 5 1 29.962 14.275 26.405 
405 5 1 28.227 16.173 26.583 
406 5 1 27.097 16.671 24.634 
407 5 1 25.929 17.373 22.809 
408 5 1 25.301 18.339 20.839 
409 5 1 25.250 18.620 18.196 
410 5 1 24.793 19.247 15.775 
411 5 1 24.012 19.843 13.433 
412 5 1 24.487 21.997 12.143 
413 5 1 24.384 24.173 11.502 
414 5 1 23.809 26.490 12.654 
415 5 1 23.248 28.807 13.787 
416 5 1 22.442 28.751 16.054 
417 5 1 21.468 27.844 18.337 
418 5 1 21.293 26.832 20.517 
419 5 1 22.151 26.489 22.903 
420 5 1 23.329 26.384 25.170 
421 5 1 25.173 26.234 26.638 
422 5 1 26.814 26.231 28.325 
423 5 1 28.622 26.701 29.663 
424 5 1 31.133 27.026 29.626 
425 5 1 33.530 27.724 29.679 
426 5 1 35.888 28.787 29.718 
427 5 1 38.260 29.773 29.563 
428 5 1 40.597 29.984 30.064 
429 5 1 42.626 29.590 31.579 
430 5 1 43.295 27.332 32.753 
431 5 1 45.273 27.397 34.392 
432 5 1 47.210 27.276 36.192 
433 5 1  1.041 27.115 37.644 
434 5 1  1.642 25.710 39.730 
435 5 1  2.289 24.293 41.815 
436 5 1  2.235 22.846 43.811 
437 5 1  2.317 21.228 45.427 
438 5 1  3.393 19.713 47.113 
439 5 1  4.390 18.383 49.108 
440 5 1  5.427 17.188  0.988 
441 6 1 16.590 36.378 45.030 
442 6 1 14.262 36.398 45.946 
443 6 1 11.844 36.712 46.509 
444 6 1  9.393 36.664 47.381 
445 6 1  6.946 36.241 48.179 
446 6 1  4.488 35.293 48.655 
447 6 1  1.984 34.777 49.048 
448 6 1 47.784 34.290 -0.812 
449 6 1 45.582 34.686  0.002 
450 6 1 44.476 36.995 -0.109 
451 6 1 43.916 39.475 -0.018 
452 6 1 43.273 42.026  0.058 
453 6 1 42.727 44.508 -0.275 
454 6 1 43.324 46.646 49.128 
455 6 1 45.160 48.358 48.297 
456 6 1 47.084  1.867 47.452 
457 6 1 48.949  3.348 46.596 
458 6 1  1.798  4.117 44.780 
459 6 1  2.966  4.962 43.010 
460 6 1  4.821  6.689 42.531 
461 6 1  6.937  8.159 42.205 
462 6 1  8.942  8.593 43.707 
463 6 1 11.318  8.098 42.962 
464 6 1 13.637  7.345 42.208 
465 6 1 14.794  5.926 40.826 
466 6 1 15.543  4.841 38.534 
467 6 1 16.103  3.721 36.277 
468 6 1 17.357  3.327 34.306 
469 6 1 18.977  3.659 32.376 
470 6 1 20.648  3.277 30.632 
471 6 1 23.219  2.898 31.204 
472 6 1 25.618  3.348 31.072 
473 6 1 27.305  4.761 31.317 
474 6 1 26.693  7.158 32.112 
475 6 1 25.406  9.141 32.577 
476 6 1 23.456 10.753 32.644 
477 6 1 21.347 12.290 32.036 
478 6 1 19.137 11.666 30.852 
479 6 1 16.933 11.604 29.685 
480 6 1 14.626 11.658 28.479 
481 6 1 12.432 12.121 27.140 
482 6 1 10.272 12.595 25.866 
483 6 1  7.946 12.567 24.987 
484 6 1  5.969 11.742 23.860 
485 6 1  4.876  9.579 24.683 
486 6 1  3.438  7.517 25.383 
487 6 1  1.711  5.814 26.082 
488 6 1  0.956  4.259 27.575 
489 6 1  1.236  2.863 29.710 
490 6 1  1.772  0.566 29.409 
491 6 1  1.649 46.402 28.145 
492 6 1  0.342 44.236 28.393 
493 6 1 48.447 41.862 28.859 
494 6 1 48.806 39.527 29.841 
495 6 1 48.780 37.068 30.370 
496 6 1 48.590 34.430 30.761 
497 6 1 47.643 32.750 29.022 
498 6 1 47.782 30.235 29.010 
499 6 1 47.847 27.590 28.906 
500 6 1 46.210 25.717 29.537 
501 6 1 45.127 24.154 30.815 
502 6 1 44.859 22.371 32.679 
503 6 1 46.130 22.502 34.983 
504 6 1 47.418 22.786 37.171 
505 6 1 47.157 21.610 39.424 
506 6 1 46.649 20.949 41.810 
507 6 1 45.815 20.342 44.198 
508 6 1 46.738 18.992 46.193 
509 6 1 47.108 17.610 48.276 
510 6 1 47.529 16.159  0.239 
511 6 1 48.283 14.807  2.271 
512 6 1  0.963 15.937  4.389 
513 6 1 48.518 15.788  6.852 
514 6 1  1.754 16.189  8.932 
515 6 1  3.946 15.946  9.677 
516 6 1  6.418 15.219  9.405 
517 6 1  8.944 15.015  9.131 
518 6 1 11.486 15.002  8.979 
519 7 1 46.031 48.629 35.060 
520 7 1 45.626  1.532 37.183 
521 7 1 47.168 48.838 38.775 
522 7 1  0.901 48.732 40.299 
523 7 1  0.169 -0.057 42.404 
524 7 1 46.931 46.530 43.886 
525 7 1 45.580 45.246 45.730 
526 7 1 44.542 42.977 45.210 
527 7 1 43.515 40.594 44.988 
528 7 1 42.017 38.466 44.606 
529 7 1 41.368 36.889 46.596 
530 7 1 41.110 35.156 48.502 
531 7 1 40.938 34.057  0.320 
532 7 1 40.702 34.684  2.826 
533 7 1 42.429 35.726  4.251 
534 7 1 42.598 38.239  4.694 
535 7 1 43.308 40.671  5.118 
536 7 1 43.945 43.128  5.614 
537 7 1 44.701 45.509  6.099 
538 7 1 45.766 47.762  6.512 
539 7 1 46.718  2.080  6.564 
540 7 1 47.506  4.435  6.455 
541 7 1 46.590  6.613  7.624 
542 7 1 45.013  7.753  8.922 
543 7 1 42.835  8.222 10.127 
544 7 1 40.961  8.772 11.761 
545 7 1 41.238  8.287 14.145 
546 7 1 42.605  8.164 16.135 
547 7 1 44.726  6.954 16.977 
548 7 1 46.676  5.236 17.207 
549 7 1 48.520  3.327 16.975 
550 7 1  1.705  2.997 14.897 
551 7 1  2.705  3.544 12.714 
552 7 1  3.212  4.575 10.461 
553 7 1  3.220  5.931  8.218 
554 7 1  3.684  6.398  6.005 
555 7 1  4.427  5.972  3.548 
556 7 1  6.640  6.057  2.152 
557 7 1  8.699  6.790  1.428 
558 7 1 11.070  7.782  1.959 
559 7 1 13.391  8.896  2.667 
560 7 1 15.703  9.937  2.927 
561 7 1 17.550 10.277  4.595 
562 7 1 18.146 11.042  6.705 
563 7 1 17.791 11.981  9.119 
564 7 1 15.678 12.220 10.521 
565 7 1 13.621 12.239 12.093 
566 7 1 11.710 11.904 13.822 
567 7 1  9.756 11.563 15.276 
568 7 1  7.886 11.295 16.997 
569 7 1  6.051 10.997 18.842 
570 7 1  3.976 12.560 19.170 
571 7 1  2.514 12.824 21.200 
572 7 1  1.488 12.434 23.144 
573 7 1  0.723 10.920 24.739 
574 7 1 47.508  9.131 25.775 
575 7 1 45.702  7.905 24.478 
576 7 1 44.321  6.486 22.746 
577 7 1 42.816  5.301 21.010 
578 7 1 41.051  4.207 19.476 
579 7 1 39.482  4.353 17.731 
580 7 1 37.964  5.408 15.793 
581 7 1 36.186  5.868 14.048 
582 7 1 36.361  5.087 11.544 
583 7 1 34.569  5.265  9.655 
584 7 1 32.695  5.351  7.797 
585 7 1 30.650  5.709  6.410 
586 7 1 28.504  5.989  5.053 
587 7 1 26.309  6.426  3.928 
588 7 1 24.012  6.837  2.624 
589 7 1 21.731  7.214  1.555 
590 7 1 19.499  7.549  0.296 
591 7 1 17.206  7.441 -0.854 
592 7 1 14.906  7.863 48.082 
593 7 1 12.653  6.868 47.376 
594 7 1 10.200  6.070 47.071 
595 7 1  7.896  4.974 46.812 
596 7 1  6.069  3.856 47.609 
597 8 1  9.171  7.490 30.374 
598 8 1  9.441  7.879 27.835 
599 8 1  9.503  7.316 25.641 
600 8 1  8.860  6.350 23.683 
601 8 1  7.279  6.526 21.635 
602 8 1  5.533  6.153 19.837 
603 8 1  4.148  6.512 18.057 
604 8 1  3.159  7.936 16.159 
605 8 1  2.032  8.651 14.133 
606 8 1  0.173  8.886 12.705 
607 8 1 47.175  6.847 12.660 
608 8 1 46.613  4.489 11.916 
609 8 1 46.118  1.914 11.387 
610 8 1 45.311 47.562 11.152 
611 8 1 44.427 45.243 10.709 
612 8 1 43.577 42.810 10.239 
613 8 1 42.690 40.360 10.120 
614 8 1 41.382 38.169 10.170 
615 8 1 40.344 35.880  9.726 
616 8 1 39.723 33.500  9.092 
617 8 1 38.943 31.040  8.752 
618 8 1 36.601 30.184  8.907 
619 8 1 35.880 27.841  9.707 
620 8 1 35.055 25.479  9.966 
621 8 1 32.600 24.596 10.299 
622 8 1 30.594 24.395 11.286 
623 8 1 28.805 24.443 13.243 
624 8 1 26.989 24.425 15.081 
625 8 1 25.016 24.663 16.810 
626 8 1 24.875 23.686 19.266 
627 8 1 24.760 22.697 21.510 
628 8 1 24.728 21.845 23.995 
629 8 1 24.254 21.030 26.403 
630 8 1 24.347 19.515 28.224 
631 8 1 25.177 17.589 29.660 
632 8 1 26.592 16.269 31.290 
633 8 1 27.669 13.943 30.836 
634 8 1 28.677 11.547 30.445 
635 8 1 28.763  9.603 29.170 
636 8 1 28.524  7.899 27.350 
637 8 1 28.735  6.281 25.360 
638 8 1 28.678  4.252 24.177 
639 8 1 27.917  2.330 25.750 
640 8 1 27.697  0.777 27.596 
641 8 1 27.738 47.734 29.836 
642 8 1 25.985 46.683 31.044 
643 8 1 25.100 45.455 32.767 
644 8 1 27.026 44.872 34.403 
645 8 1 28.219 46.683 35.107 
646 8 1 29.374 48.887 34.447 
647 8 1 30.661  2.945 33.790 
648 8 1 31.482  5.208 32.719 
649 8 1 32.225  7.469 31.451 
650 8 1 33.243  9.640 31.373 
651 8 1 33.267 11.894 32.022 
652 8 1 32.800 14.100 31.361 
653 8 1 33.027 16.175 29.949 
654 8 1 32.730 18.343 28.594 
655 8 1 33.104 20.556 28.065 
656 8 1 33.411 22.822 28.241 
657 8 1 34.261 23.744 30.103 
658 8 1 35.775 23.701 31.855 
659 8 1 36.696 22.737 34.109 
660 8 1 37.428 21.892 36.380 
661 8 1 38.761 19.804 36.825 
662 8 1 40.689 18.394 36.851 
663 8 1 42.945 17.809 35.682 
664 8 1 44.857 17.656 36.916 
665 8 1 46.581 16.425 38.251 
666 8 1 48.803 15.882 38.935 
667 8 1  2.095 17.653 38.088 
668 8 1  3.421 19.794 37.614 
669 8 1  4.057 22.179 37.302 
670 8 1  4.372 24.525 36.501 
671 8 1  4.900 26.916 35.720 
672 8 1  5.701 29.332 35.359 
673 8 1  6.888 31.633 35.123 
674 8 1  8.355 33.809 34.935 
675 9 1 41.660 43.220 27.791 
676 9 1 39.815 42.912 26.273 
677 9 1 37.992 43.787 24.689 
678 9 1 37.454 45.716 23.045 
679 9 1 36.712 47.629 21.392 
680 9 1 35.874  1.414 19.692 
681 9 1 35.027  3.295 18.161 
682 9 1 33.448  5.100 17.259 
683 9 1 31.865  6.827 16.185 
684 9 1 31.991  7.661 13.715 
685 9 1 29.825  7.953 12.109 
686 9 1 27.735  7.859 10.696 
687 9 1 25.591  7.465  9.284 
688 9 1 23.433  7.192  8.009 
689 9 1 21.325  6.683  6.635 
690 9 1 19.186  6.381  5.170 
691 9 1 17.028  5.790  3.788 
692 9 1 14.995  4.747  2.630 
693 9 1 12.925  3.792  1.452 
694 9 1 10.812  2.781  1.116 
695 9 1  8.841  1.619  2.231 
696 9 1  7.239  1.129  3.857 
697 9 1  5.517  1.586  5.601 
698 9 1  3.669  0.772  6.769 
699 9 1  1.808 47.209  7.672 
700 9 1  0.555 45.443  9.102 
701 9 1 48.020 43.095  8.242 
702 9 1 47.153 40.693  7.942 
703 9 1 46.208 38.388  8.336 
704 9 1 45.308 35.961  8.697 
705 9 1 44.422 33.527  8.427 
706 9 1 43.299 31.231  7.877 
707 9 1 44.687 29.537  7.283 
708 9 1 46.751 28.695  6.736 
709 9 1 48.629 30.130  7.736 
710 9 1  1.684 31.907  8.279 
711 9 1  2.380 34.383  8.321 
712 9 1  2.975 36.866  8.036 
713 9 1  3.605 39.369  7.383 
714 9 1  4.450 41.771  6.792 
715 9 1  5.478 44.000  6.078 
716 9 1  7.123 45.619  6.147 
717 9 1  9.327 46.229  5.921 
718 9 1 11.477 47.059  5.590 
719 9 1 13.260 45.787  6.795 
720 9 1 15.450 44.846  7.683 
721 9 1 17.429 43.515  7.843 
722 9 1 19.020 41.593  7.080 
723 9 1 21.151 41.800  5.663 
724 9 1 23.135 41.753  4.034 
725 9 1 25.297 41.400  2.639 
726 9 1 27.518 40.961  1.454 
727 9 1 29.859 40.237  0.657 
728 9 1 32.252 39.547 -0.067 
729 9 1 33.083 38.434 47.883 
730 9 1 35.578 37.842 47.288 
731 9 1 37.746 38.343 47.825 
732 9 1 38.308 40.918 47.696 
733 9 1 39.267 43.050 46.942 
734 9 1 40.115 44.904 45.330 
735 9 1 41.700 46.682 44.217 
736 9 1 42.903 48.588 43.166 
737 9 1 44.173  2.549 42.204 
738 9 1 45.958  4.290 41.546 
739 9 1 47.698  5.999 40.846 
740 9 1  1.288  7.513 39.931 
741 9 1  3.049  9.116 38.702 
742 9 1  4.932  8.484 37.066 
743 9 1  6.864  7.422 36.145 
744 9 1  9.179  6.377 36.637 
745 9 1 11.026  4.843 36.728 
746 9 1 12.283  4.749 34.509 
747 9 1 13.356  5.653 32.653 
748 9 1 13.800  7.109 30.885 
749 9 1 13.728  7.585 28.340 
750 9 1 13.957  7.995 25.732 
751 9 1 13.558  8.955 23.617 
752 9 1 12.021  9.889 21.746 
753 10 1 36.536  4.870 28.464 
754 10 1 36.573  7.475 27.933 
755 10 1 36.910 10.012 27.843 
756 10 1 37.446 12.445 28.070 
757 10 1 37.514 15.029 28.089 
758 10 1 39.644 16.487 27.403 
759 10 1 41.870 16.949 26.878 
760 10 1 44.293 16.184 26.788 
761 10 1 46.446 15.018 27.588 
762 10 1 48.574 14.825 28.596 
763 10 1  2.310 15.594 27.065 
764 10 1  4.456 16.266 25.812 
765 10 1  6.684 16.877 24.699 
766 10 1  8.000 17.838 23.093 
767 10 1  8.207 18.853 20.690 
768 10 1  6.230 18.229 19.614 
769 10 1  4.144 17.252 19.279 
770 10 1  1.638 17.223 18.539 
771 10 1  0.592 19.505 18.019 
772 10 1 46.854 19.440 16.850 
773 10 1 44.478 18.215 17.116 
774 10 1 42.448 16.545 17.287 
775 10 1 40.034 17.258 17.910 
776 10 1 37.770 18.050 18.806 
777 10 1 35.440 18.995 19.297 
778 10 1 33.728 20.361 18.939 
779 10 1 33.872 21.217 16.541 
780 10 1 34.067 22.152 14.066 
781 10 1 36.150 22.813 13.168 
782 10 1 38.683 22.417 12.438 
783 10 1 41.207 21.823 12.040 
784 10 1 43.043 22.460 10.335 
785 10 1 44.602 20.985  8.865 
786 10 1 45.901 19.931  6.974 
787 10 1 47.318 21.761  5.894 
788 10 1 48.787 23.373  5.504 
789 10 1  2.092 25.048  4.801 
790 10 1  2.903 25.323  2.372 
791 10 1  3.750 24.980 -0.011 
792 10 1  4.219 24.519 47.690 
793 10 1  4.441 26.224 45.623 
794 10 1  4.342 27.899 43.707 
795 10 1  4.646 29.709 42.348 
796 10 1  5.713 32.011 42.015 
797 10 1  6.856 34.325 41.843 
798 10 1  7.918 35.999 40.589 
799 10 1 10.078 35.266 39.972 
800 10 1 12.382 34.821 40.846 
801 10 1 14.758 34.155 41.423 
802 10 1 17.279 33.636 41.581 
803 10 1 19.626 32.724 41.528 
804 10 1 21.738 31.310 41.551 
805 10 1 23.947 30.050 41.761 
806 10 1 26.301 29.106 42.192 
807 10 1 28.637 28.193 42.551 
808 10 1 30.831 27.577 43.739 
809 10 1 32.981 27.503 44.456 
810 10 1 35.651 27.515 44.082 
811 10 1 38.201 27.786 44.179 
812 10 1 40.811 27.955 44.311 
813 10 1 42.578 29.221 42.933 
814 10 1 44.484 30.216 41.442 
815 10 1 45.787 31.943 40.723 
816 10 1 46.559 33.938 39.844 
817 10 1 47.265 35.485 37.864 
818 10 1 47.936 37.050 35.957 
819 10 1  0.466 39.008 34.995 
820 10 1  1.890 40.634 34.364 
821 10 1  3.436 42.063 33.326 
822 10 1  5.050 43.150 35.050 
823 10 1  6.827 44.564 36.398 
824 10 1  8.861 44.774 37.407 
825 10 1 11.172 43.952 38.074 
826 10 1 13.025 43.460 39.413 
827 10 1 14.930 43.839 41.192 
828 10 1 17.074 44.055 42.591 
829 10 1 19.134 43.235 43.562 
830 10 1 20.884 41.482 44.319 
831 11 1 37.870 44.229 17.191 
832 11 1 36.656 43.779 15.175 
833 11 1 36.255 43.914 12.580 
834 11 1 34.835 43.739 10.670 
835 11 1 33.170 43.423  8.855 
836 11 1 31.030 42.454  8.654 
837 11 1 29.160 40.728  8.413 
838 11 1 26.959 39.809  8.614 
839 11 1 24.561 39.834  9.673 
840 11 1 22.193 39.556 10.483 
841 11 1 19.849 39.102 11.300 
842 11 1 17.825 40.636 11.715 
843 11 1 15.999 42.416 12.109 
844 11 1 15.357 44.172 13.414 
845 11 1 14.329 45.506 15.111 
846 11 1 12.335 44.438 16.255 
847 11 1 10.417 43.286 17.488 
848 11 1  9.312 41.407 18.013 
849 11 1  8.913 38.916 17.894 
850 11 1  8.480 36.466 17.745 
851 11 1  8.374 33.912 17.537 
852 11 1  9.035 31.490 17.734 
853 11 1  9.916 29.100 17.966 
854 11 1 10.184 26.900 18.909 
855 11 1  9.843 24.977 20.591 
856 11 1 10.252 23.109 22.137 
857 11 1 11.050 21.245 23.709 
858 11 1 12.979 21.235 25.526 
859 11 1 14.892 20.785 27.196 
860 11 1 17.167 20.503 28.035 
861 11 1 19.712 20.696 27.685 
862 11 1 20.556 19.648 25.600 
863 11 1 20.819 18.481 23.360 
864 11 1 21.199 17.930 20.826 
865 11 1 20.928 17.097 18.378 
866 11 1 20.333 17.155 16.145 
867 11 1 19.603 18.730 14.085 
868 11 1 19.258 20.218 12.076 
869 11 1 18.579 21.616  9.917 
870 11 1 17.580 21.445  7.820 
871 11 1 16.774 20.529  5.635 
872 11 1 15.834 19.453  3.482 
873 11 1 14.573 18.293  1.541 
874 11 1 14.020 17.548 -0.958 
875 11 1 13.845 16.818 46.659 
876 11 1 13.323 17.111 44.515 
877 11 1 11.929 18.090 42.439 
878 11 1 10.744 16.473 41.249 
879 11 1 11.110 15.980 38.709 
880 11 1 11.637 15.846 36.220 
881 11 1 12.227 16.169 33.796 
882 11 1 12.678 16.470 31.357 
883 11 1 12.827 16.828 28.847 
884 11 1 12.297 16.598 26.209 
885 11 1 12.138 16.218 23.658 
886 11 1 12.071 15.849 21.098 
887 11 1 11.381 15.822 18.684 
888 11 1 10.514 16.031 16.236 
889 11 1  8.262 15.925 15.493 
890 11 1  5.912 16.912 14.929 
891 11 1  3.547 17.826 14.262 
892 11 1  1.152 18.174 13.545 
893 11 1 47.029 18.161 12.369 
894 11 1 44.855 17.313 12.088 
895 11 1 42.474 16.257 12.852 
896 11 1 40.348 17.346 13.610 
897 11 1 38.176 18.254 14.473 
898 11 1 36.524 17.726 13.074 
899 11 1 34.915 18.162 10.945 
900 11 1 34.524 20.376  9.684 
901 11 1 35.282 21.167  7.421 
902 11 1 35.515 21.586  4.865 
903 11 1 36.842 21.752  2.998 
904 11 1 39.060 21.344  1.728 
905 11 1 41.269 21.059  0.348 
906 11 1 42.348 20.374 48.653 
907 11 1 42.840 17.930 48.292 
908 11 1 43.419 15.806 49.063 
909 12 1  7.441 47.206 49.089 
910 12 1  5.734 45.778  0.208 
911 12 1  4.559 44.058  1.284 
912 12 1  4.285 41.624  2.058 
913 12 1  4.141 39.119  2.620 
914 12 1  3.835 36.592  2.783 
915 12 1  3.685 34.055  3.156 
916 12 1  3.789 31.610  3.729 
917 12 1  5.508 29.829  3.426 
918 12 1  7.355 28.352  3.753 
919 12 1  9.662 27.908  4.274 
920 12 1 10.758 29.585  5.759 
921 12 1 11.987 31.140  7.312 
922 12 1 12.125 33.252  8.421 
923 12 1 11.635 35.788  8.763 
924 12 1 11.902 38.143  8.190 
925 12 1 12.335 40.575  7.331 
926 12 1 13.805 41.265  5.354 
927 12 1 15.488 41.857  3.506 
928 12 1 17.421 42.400  1.862 
929 12 1 18.912 44.343  1.865 
930 12 1 20.884 45.828  2.206 
931 12 1 23.306 45.648  1.248 
932 12 1 25.755 45.374  0.594 
933 12 1 26.869 46.867 49.056 
934 12 1 27.859 48.991 47.917 
935 12 1 30.275  1.633 48.192 
936 12 1 32.725  2.451 48.334 
937 12 1 35.219  3.140 48.126 
938 12 1 36.532  5.217 47.269 
939 12 1 37.923  7.072 46.236 
940 12 1 39.264  9.176 45.732 
941 12 1 40.843 11.118 45.230 
942 12 1 43.332 11.203 44.765 
943 12 1 44.927 13.091 45.385 
944 12 1 46.180 14.266 43.516 
945 12 1 48.376 15.678 43.540 
946 12 1  2.606 16.469 43.680 
947 12 1  4.986 17.576 43.487 
948 12 1  5.562 18.423 41.325 
949 12 1  5.875 20.911 41.171 
950 12 1  6.232 23.487 40.925 
951 12 1  7.126 25.981 40.459 
952 12 1  8.500 27.295 38.867 
953 12 1  8.477 29.804 38.342 
954 12 1 10.506 31.275 37.818 
955 12 1 12.465 32.781 37.032 
956 12 1 14.776 33.325 36.521 
957 12 1 17.276 32.897 36.730 
958 12 1 19.803 32.582 36.441 
959 12 1 22.334 32.060 36.460 
960 12 1 24.631 31.717 37.279 
961 12 1 26.998 31.280 38.290 
962 12 1 28.835 31.283 36.715 
963 12 1 30.379 33.351 37.166 
964 12 1 31.829 35.311 37.859 
965 12 1 33.512 37.282 38.458 
966 12 1 32.596 39.359 38.412 
967 12 1 30.856 41.094 39.181 
968 12 1 29.019 42.830 39.527 
969 12 1 27.588 44.893 39.874 
970 12 1 25.037 45.233 39.935 
971 12 1 22.607 45.850 39.762 
972 12 1 20.061 46.411 39.847 
973 12 1 17.945 46.877 38.963 
974 12 1 16.290 47.012 36.975 
975 12 1 14.486 46.819 35.092 
976 12 1 12.732 46.501 33.258 
977 12 1 10.831 45.882 31.585 
978 12 1  8.545 45.304 30.486 
979 12 1  6.889 43.821 29.971 
980 12 1  5.815 41.613 29.381 
981 12 1  4.951 39.226 29.088 
982 12 1  4.456 36.755 28.463 
983 12 1  4.532 34.166 28.282 
984 12 1  4.286 31.596 28.019 
985 12 1  4.266 28.989 28.038 
986 12 1  4.072 26.431 28.304 