LAMMPS data file generated by aa2cg.

2000 atoms
1 atom types
1975 bonds
1 bond types
1950 angles
1 angle types
1925 dihedrals
1 dihedral types

 0.000 48.111 xlo xhi
 0.000 65.136 ylo yhi
 0.000 37.172 zlo zhi

Masses

1 24.022

Atoms # molecular

1 1 1 13.419 38.998 29.450 
2 1 1 34.447 48.721 21.430 
3 2 1 23.251 20.459 42.035 
4 2 1 47.347  6.834 30.923 
5 3 1 14.021 21.294 37.692 
6 3 1  5.168 41.678 38.548 
7 4 1 36.748 55.337  8.463 
8 4 1 43.752 35.506 21.255 
9 5 1 14.915 49.010 33.578 
10 5 1 22.133 17.382 38.759 
11 6 1 22.419 16.743  9.893 
12 6 1 18.202 16.747 28.806 
13 7 1 33.919 43.147 29.671 
14 7 1 11.223 18.524  6.232 
15 8 1  3.857 44.288 25.589 
16 8 1 45.301 16.971 19.038 
17 9 1  2.097 32.135 37.049 
18 9 1 30.115  7.846 17.905 
19 10 1 28.171 22.964 10.614 
20 10 1 27.927 19.455 25.321 
21 11 1 24.793 -5.512 40.704 
22 11 1 48.323 18.675 33.783 
23 12 1 34.751 22.448 38.583 
24 12 1 45.389 17.687 37.968 
25 13 1  3.397 20.322 39.490 
26 13 1 21.544 51.976  9.665 
27 14 1  3.571 29.421 14.801 
28 14 1 23.723  6.511 27.379 
29 15 1 13.063 -1.739 22.830 
30 15 1 32.349 17.486 33.729 
31 16 1 23.445 10.571 13.518 
32 16 1 47.404 22.580 26.339 
33 17 1 37.974 36.606  6.511 
34 17 1 46.700 38.972 18.140 
35 18 1 19.544  4.318 33.287 
36 18 1 24.291 48.370 34.032 
37 19 1 38.396 -0.982 11.655 
38 19 1 34.618 26.518 34.384 
39 20 1 21.139 54.108 35.059 
40 20 1 45.163 41.098 29.822 
41 21 1 22.872 35.919 25.183 
42 21 1 12.417 -4.396 38.447 
43 22 1 23.762 -1.406 41.196 
44 22 1 24.717  1.355 26.604 
45 23 1 31.743 51.089 31.657 
46 23 1 33.276 54.936 15.551 
47 24 1 46.353 30.868 14.686 
48 24 1 31.999 44.433 16.952 
49 25 1 45.440 23.261 17.842 
50 25 1 35.422 11.320 22.344 
51 1 1 11.621 40.848 29.656 
52 1 1  9.689 42.363 29.117 
53 1 1  7.197 41.977 28.817 
54 1 1  4.831 41.120 29.011 
55 1 1  3.124 39.642 28.557 
56 1 1  1.892 40.197 26.738 
57 1 1 -0.213 41.087 25.535 
58 1 1 45.374 40.790 25.728 
59 1 1 42.831 40.609 25.807 
60 1 1 40.359 40.366 26.215 
61 1 1 37.838 39.895 26.656 
62 1 1 36.143 38.369 26.971 
63 1 1 34.347 36.956 27.197 
64 1 1 32.549 35.391 27.217 
65 1 1 31.665 32.998 27.066 
66 1 1 30.675 30.588 26.844 
67 1 1 30.602 29.215 24.664 
68 1 1 30.670 27.629 22.622 
69 1 1 31.332 26.089 20.586 
70 1 1 32.254 24.851 18.488 
71 1 1 32.579 23.285 16.486 
72 1 1 32.415 20.707 16.614 
73 1 1 32.222 18.172 17.010 
74 1 1 32.255 15.669 17.417 
75 1 1 31.990 13.005 17.382 
76 1 1 32.658 11.517 15.428 
77 1 1 32.834  9.869 13.495 
78 1 1 32.163  8.765 11.493 
79 1 1 31.276  8.955  9.028 
80 1 1 30.621  9.100  6.514 
81 1 1 30.423  9.587 41.185 
82 1 1 28.692  8.920 39.408 
83 1 1 27.180 10.717 38.295 
84 1 1 26.179 10.578 35.958 
85 1 1 23.954 11.741 35.324 
86 1 1 21.807 12.653 34.307 
87 1 1 19.498 13.270 33.344 
88 1 1 17.590 14.550 33.224 
89 1 1 16.340 16.778 33.940 
90 1 1 15.449 18.931 33.679 
91 1 1 14.895 20.992 32.181 
92 1 1 15.582 23.162 32.642 
93 1 1 15.906 25.485 33.585 
94 1 1 16.319 27.797 33.367 
95 1 1 16.976 30.061 32.239 
96 1 1 18.909 30.094 31.146 
97 1 1 21.156 28.958 30.709 
98 1 1 23.311 27.816 29.939 
99 1 1 23.195 26.178 28.183 
100 1 1 23.504 24.562 26.382 
101 1 1 23.619 23.023 24.517 
102 1 1 23.684 21.224 23.058 
103 1 1 21.479 20.397 23.475 
104 1 1 18.944 20.454 24.308 
105 1 1 18.075 22.557 24.178 
106 1 1 17.252 24.722 23.042 
107 1 1 16.666 25.365 20.627 
108 1 1 17.224 25.875 18.418 
109 1 1 17.879 26.498 16.293 
110 1 1 18.535 29.035 16.008 
111 1 1 19.061 31.513 16.180 
112 1 1 19.352 34.076 16.358 
113 1 1 19.378 36.625 16.417 
114 1 1 19.208 39.144 16.214 
115 1 1 19.850 41.241 15.538 
116 1 1 21.680 42.991 15.130 
117 1 1 23.839 44.353 14.821 
118 1 1 26.178 45.315 14.514 
119 1 1 28.495 45.125 13.854 
120 1 1 30.095 44.012 12.276 
121 1 1 31.347 42.325 10.830 
122 1 1 33.421 41.065 11.682 
123 1 1 35.678 40.993 12.307 
124 1 1 36.512 43.076 13.480 
125 1 1 37.810 45.125 14.417 
126 1 1 38.752 46.275 16.317 
127 1 1 37.092 46.057 18.315 
128 1 1 35.847 47.110 20.146 
129 2 1 25.434 19.397  5.801 
130 2 1 27.852 18.665  6.444 
131 2 1 30.357 18.320  6.812 
132 2 1 32.770 18.173  7.415 
133 2 1 35.061 17.737  8.587 
134 2 1 37.330 16.935  9.650 
135 2 1 39.560 16.916 10.084 
136 2 1 41.883 18.070  9.660 
137 2 1 43.551 19.987  9.681 
138 2 1 45.027 22.098  9.367 
139 2 1 46.434 24.172  8.974 
140 2 1 47.693 26.053  9.508 
141 2 1 48.450 28.348 10.460 
142 2 1  1.184 30.710 10.769 
143 2 1  2.033 33.096 11.058 
144 2 1  3.564 35.070 11.433 
145 2 1  5.523 36.726 11.494 
146 2 1  7.721 38.079 11.243 
147 2 1  9.828 39.476 10.767 
148 2 1 11.649 40.989 10.076 
149 2 1 13.214 42.829  9.331 
150 2 1 14.783 44.699  8.628 
151 2 1 16.155 46.595  7.580 
152 2 1 17.226 48.339  9.074 
153 2 1 16.165 50.364  9.158 
154 2 1 14.315 51.500  8.480 
155 2 1 12.584 52.293  6.782 
156 2 1 12.156 51.818 41.470 
157 2 1 11.641 51.728 38.935 
158 2 1 11.083 51.861 36.419 
159 2 1 10.332 52.197 34.006 
160 2 1 10.745 53.154 31.936 
161 2 1 11.919 53.510 29.782 
162 2 1 13.468 54.282 28.202 
163 2 1 14.756 56.303 27.333 
164 2 1 15.716 -6.609 26.446 
165 2 1 16.475 -4.368 25.540 
166 2 1 18.406 -2.961 26.563 
167 2 1 20.627 -2.407 26.548 
168 2 1 22.858 -2.529 26.992 
169 2 1 25.015 -3.226 28.312 
170 2 1 27.396 -2.966 28.824 
171 2 1 27.850 -0.877 30.347 
172 2 1 29.795  0.754 29.895 
173 2 1 31.793  2.461 29.564 
174 2 1 34.089  3.022 28.932 
175 2 1 35.188  0.988 27.783 
176 2 1 36.137 -1.264 26.980 
177 2 1 37.480 -3.384 26.150 
178 2 1 39.002 -5.350 25.310 
179 2 1 40.262 -7.421 24.579 
180 2 1 41.252 55.434 23.905 
181 2 1 42.458 53.275 23.415 
182 2 1 43.741 51.189 22.848 
183 2 1 45.055 48.943 22.095 
184 2 1 45.818 46.415 21.543 
185 2 1 46.419 43.988 20.982 
186 2 1 45.943 41.749 20.858 
187 2 1 44.231 39.730 21.287 
188 2 1 41.859 40.194 21.322 
189 2 1 39.919 41.601 22.196 
190 2 1 38.005 43.016 23.156 
191 2 1 36.950 45.110 24.044 
192 2 1 35.973 47.256 25.012 
193 2 1 35.208 49.376 26.184 
194 2 1 34.673 51.547 27.450 
195 2 1 33.873 53.706 28.477 
196 2 1 32.931 55.848 29.453 
197 2 1 31.982 -6.996 30.327 
198 2 1 31.136 -4.604 30.933 
199 2 1 32.744 -2.654 31.135 
200 2 1 34.341 -0.785 31.757 
201 2 1 35.858  1.129 32.613 
202 2 1 37.320  3.093 32.364 
203 2 1 38.739  4.292 30.591 
204 2 1 40.606  4.880 29.560 
205 2 1 43.177  5.447 29.840 
206 2 1 45.612  6.033 29.284 
207 3 1 12.562 21.269 39.770 
208 3 1 13.028 22.266 42.122 
209 3 1 13.030 23.434  7.200 
210 3 1 13.646 24.155  9.473 
211 3 1 14.831 24.386 11.752 
212 3 1 14.850 22.608 13.654 
213 3 1 14.689 20.907 15.522 
214 3 1 15.531 21.092 17.997 
215 3 1 15.433 20.783 20.615 
216 3 1 14.189 20.152 22.500 
217 3 1 13.373 17.797 21.873 
218 3 1 13.540 15.537 21.359 
219 3 1 14.691 13.249 20.909 
220 3 1 17.124 12.479 21.142 
221 3 1 19.473 11.513 21.632 
222 3 1 21.815 10.591 22.312 
223 3 1 24.189 10.115 23.157 
224 3 1 26.475  9.899 24.341 
225 3 1 26.770  9.677 26.698 
226 3 1 26.508 10.238 29.204 
227 3 1 25.468 10.719 31.338 
228 3 1 23.158 10.409 30.705 
229 3 1 20.750  9.420 29.945 
230 3 1 18.138  9.069 29.789 
231 3 1 16.779  7.159 28.818 
232 3 1 15.358  5.358 27.593 
233 3 1 15.225  3.735 26.045 
234 3 1 15.987  2.359 24.025 
235 3 1 16.817  0.902 22.292 
236 3 1 17.639 -0.970 21.336 
237 3 1 18.508 -3.374 21.102 
238 3 1 20.547 -4.528 22.324 
239 3 1 20.237 -6.369 24.156 
240 3 1 19.940 -8.276 25.872 
241 3 1 19.538 54.866 27.544 
242 3 1 18.313 53.737 29.155 
243 3 1 16.330 53.240 30.845 
244 3 1 15.769 54.216 33.184 
245 3 1 15.271 54.834 35.615 
246 3 1 15.177 55.245 38.133 
247 3 1 15.992 54.865 40.402 
248 3 1 17.383 53.918 42.408 
249 3 1 18.833 51.781 42.308 
250 3 1 20.534 49.890 42.797 
251 3 1 22.317 48.317 43.600 
252 3 1 21.867 46.303  7.856 
253 3 1 21.076 45.301  9.745 
254 3 1 19.344 44.452 11.226 
255 3 1 17.668 42.865 12.178 
256 3 1 16.798 40.562 11.359 
257 3 1 15.580 38.359 10.943 
258 3 1 13.992 36.397 10.581 
259 3 1 11.897 35.988 12.052 
260 3 1  9.891 35.390 13.697 
261 3 1  7.895 34.701 15.170 
262 3 1  6.275 33.777 16.906 
263 3 1  4.732 32.708 18.649 
264 3 1  3.422 31.425 20.525 
265 3 1  4.734 29.518 21.187 
266 3 1  6.122 27.629 21.504 
267 3 1  6.547 25.037 21.514 
268 3 1  7.810 23.257 20.997 
269 3 1  9.747 21.976 20.641 
270 3 1 10.199 20.940 22.682 
271 3 1  9.724 20.127 24.748 
272 3 1  8.878 20.117 27.184 
273 3 1  8.871 20.327 29.706 
274 3 1  9.959 22.406 30.535 
275 3 1 10.928 24.782 30.831 
276 3 1 11.866 27.235 30.787 
277 3 1 11.438 29.094 29.075 
278 3 1 12.186 31.541 29.353 
279 3 1 10.725 33.648 28.740 
280 3 1 11.298 35.574 29.832 
281 3 1  9.649 36.608 31.496 
282 3 1  8.420 38.055 33.286 
283 3 1  7.578 39.390 35.304 
284 3 1  6.798 40.587 37.490 
285 4 1 35.073 57.100  7.614 
286 4 1 33.412 -6.174  6.839 
287 4 1 31.738 -4.375 43.075 
288 4 1 30.242 -2.495 42.265 
289 4 1 28.820 -0.420 41.693 
290 4 1 27.619  0.577 40.091 
291 4 1 26.077  0.651 38.057 
292 4 1 24.423  1.094 36.234 
293 4 1 23.836 -0.222 34.120 
294 4 1 23.014 -1.881 32.438 
295 4 1 20.723 -1.748 31.263 
296 4 1 18.330 -1.621 30.568 
297 4 1 15.801 -1.472 30.235 
298 4 1 13.946 -3.171 29.479 
299 4 1 12.196 -4.859 28.672 
300 4 1 10.876 -6.753 27.640 
301 4 1  8.579 -6.916 28.061 
302 4 1  6.158 -6.040 27.980 
303 4 1  3.892 -5.520 28.680 
304 4 1  4.101 -3.980 30.844 
305 4 1  4.564 -2.548 32.938 
306 4 1  4.526 -0.616 34.685 
307 4 1  4.675  1.067 36.659 
308 4 1  5.182  2.919 37.846 
309 4 1  5.576  5.475 37.944 
310 4 1  6.918  7.270 38.514 
311 4 1  9.174  8.510 38.870 
312 4 1 11.463  9.841 39.069 
313 4 1 13.948  9.081 39.618 
314 4 1 16.371  8.219 39.763 
315 4 1 18.788  7.496 40.163 
316 4 1 20.650  6.268 40.861 
317 4 1 20.700  5.718 43.377 
318 4 1 20.759  5.531  8.728 
319 4 1 22.320  4.087 10.078 
320 4 1 24.094  2.803 11.330 
321 4 1 25.965  1.249 12.398 
322 4 1 27.836  0.050 13.666 
323 4 1 27.415  0.208 15.981 
324 4 1 25.850  0.628 17.676 
325 4 1 23.404  1.324 16.921 
326 4 1 21.102  2.177 16.210 
327 4 1 18.829  3.197 15.520 
328 4 1 16.588  4.063 14.766 
329 4 1 14.323  5.038 14.545 
330 4 1 12.018  5.996 14.861 
331 4 1  9.831  7.073 15.143 
332 4 1  7.510  8.315 14.790 
333 4 1  5.332  9.520 14.208 
334 4 1  3.185 10.695 13.455 
335 4 1  1.149 11.813 12.429 
336 4 1 47.867 12.640 13.969 
337 4 1 47.445 13.314 16.258 
338 4 1 46.854 12.958 18.639 
339 4 1 46.075 12.142 20.905 
340 4 1 44.734 11.224 22.891 
341 4 1 43.100 10.482 24.756 
342 4 1 41.160  8.696 25.027 
343 4 1 38.918  7.490 25.594 
344 4 1 36.430  7.064 26.103 
345 4 1 33.936  7.469 26.717 
346 4 1 31.702  8.304 26.572 
347 4 1 31.291 10.731 27.336 
348 4 1 32.797 12.377 26.755 
349 4 1 35.048 13.520 26.765 
350 4 1 35.791 15.407 28.339 
351 4 1 36.757 17.305 29.854 
352 4 1 36.707 19.129 31.369 
353 4 1 36.707 21.153 32.421 
354 4 1 37.134 23.440 32.404 
355 4 1 38.396 23.741 30.480 
356 4 1 40.867 23.505 29.529 
357 4 1 42.910 24.923 28.614 
358 4 1 44.953 26.161 27.663 
359 4 1 45.773 28.003 26.578 
360 4 1 45.648 30.396 25.522 
361 4 1 44.828 32.704 24.760 
362 4 1 44.546 34.455 23.403 
363 5 1 13.473 48.820 31.443 
364 5 1 12.359 48.878 29.135 
365 5 1 11.141 48.653 26.852 
366 5 1 10.784 49.221 24.608 
367 5 1 10.986 50.950 22.586 
368 5 1 10.955 52.090 20.285 
369 5 1  9.927 52.732 18.306 
370 5 1  7.740 53.155 16.884 
371 5 1  6.163 55.280 16.607 
372 5 1  4.836 -7.764 16.597 
373 5 1  3.680 -5.706 17.541 
374 5 1  3.264 -3.863 18.964 
375 5 1  3.847 -2.364 20.962 
376 5 1  4.929 -0.508 22.015 
377 5 1  6.926 -0.703 20.452 
378 5 1  8.811 -1.381 18.754 
379 5 1 10.776 -2.486 18.095 
380 5 1 13.239 -3.422 18.248 
381 5 1 14.624 -5.267 18.944 
382 5 1 14.563 -5.913 21.429 
383 5 1 12.399 -6.317 22.854 
384 5 1 11.464 56.542 23.516 
385 5 1  9.364 55.915 24.726 
386 5 1  9.031 53.498 25.446 
387 5 1  8.088 52.560 27.741 
388 5 1  6.844 52.753 29.628 
389 5 1  5.164 54.347 30.858 
390 5 1  6.017 56.568 31.856 
391 5 1  6.661 -6.737 33.495 
392 5 1  7.221 -5.012 35.243 
393 5 1  7.638 -3.263 37.007 
394 5 1  8.166 -1.546 38.750 
395 5 1  8.654 -0.572 40.725 
396 5 1  9.536  0.245 42.513 
397 5 1 11.678  1.039  6.686 
398 5 1 13.812 -0.180  7.458 
399 5 1 15.690 -1.577  8.460 
400 5 1 17.426 -3.020  9.640 
401 5 1 18.724 -4.633 11.168 
402 5 1 19.622 -6.635 12.526 
403 5 1 21.048 56.722 12.899 
404 5 1 22.839 -8.045 14.478 
405 5 1 24.108 -7.845 16.716 
406 5 1 23.472 56.462 19.013 
407 5 1 22.527 55.283 21.009 
408 5 1 21.650 53.840 22.931 
409 5 1 20.805 52.033 24.503 
410 5 1 20.410 49.946 26.038 
411 5 1 20.260 47.946 27.723 
412 5 1 20.002 45.838 29.184 
413 5 1 18.709 44.270 30.177 
414 5 1 16.463 43.239 30.682 
415 5 1 14.384 44.186 32.111 
416 5 1 12.039 43.387 33.113 
417 5 1  9.616 42.893 33.971 
418 5 1  7.173 43.225 33.161 
419 5 1  5.307 44.406 34.520 
420 5 1  3.405 45.663 35.667 
421 5 1  1.579 47.285 36.342 
422 5 1 48.664 49.366 36.483 
423 5 1 48.317 51.831 36.760 
424 5 1 48.000 54.339 37.359 
425 5 1 47.396 56.764 37.904 
426 5 1 46.417 -6.118 38.161 
427 5 1 45.298 -3.908 38.607 
428 5 1 44.349 -1.508 38.940 
429 5 1 43.619  1.007 39.333 
430 5 1 42.659  3.404 39.307 
431 5 1 41.522  5.563 38.747 
432 5 1 40.837  7.987 38.349 
433 5 1 39.631  9.979 37.797 
434 5 1 37.410 11.340 37.962 
435 5 1 35.096 12.494 37.913 
436 5 1 32.589 13.397 37.961 
437 5 1 30.488 14.314 37.296 
438 5 1 28.525 15.104 36.608 
439 5 1 26.010 15.480 36.930 
440 5 1 23.434 15.561 37.448 
441 6 1 24.951 17.102 10.092 
442 6 1 27.477 17.784 10.395 
443 6 1 29.780 18.710 11.043 
444 6 1 32.189 19.466 11.623 
445 6 1 34.585 20.325 12.068 
446 6 1 37.071 21.316 12.247 
447 6 1 38.736 22.259 10.511 
448 6 1 40.671 22.985  9.007 
449 6 1 41.775 25.277  8.529 
450 6 1 43.242 27.347  8.094 
451 6 1 44.661 29.548  7.783 
452 6 1 45.808 31.831  7.486 
453 6 1 46.695 34.217  7.424 
454 6 1 47.191 36.700  7.590 
455 6 1 47.501 39.227  8.016 
456 6 1 47.395 41.659  8.815 
457 6 1  0.913 43.466  9.745 
458 6 1  2.624 45.273 10.603 
459 6 1  4.395 47.089 11.202 
460 6 1  6.050 48.743 11.874 
461 6 1  7.672 49.610 13.164 
462 6 1  9.191 48.882 15.028 
463 6 1 10.817 48.218 16.970 
464 6 1 12.583 48.203 18.915 
465 6 1 13.946 48.083 21.084 
466 6 1 13.707 46.093 22.341 
467 6 1 12.677 44.136 23.679 
468 6 1 11.920 41.897 24.673 
469 6 1 11.081 39.663 25.578 
470 6 1  9.061 38.243 24.792 
471 6 1  7.467 36.838 26.314 
472 6 1  5.924 35.451 27.858 
473 6 1  5.183 35.047 29.951 
474 6 1  4.962 35.054 32.452 
475 6 1  4.613 35.040 34.920 
476 6 1  5.002 36.871 36.696 
477 6 1  2.905 37.271 37.784 
478 6 1  0.915 37.643 39.003 
479 6 1 47.482 39.167 40.442 
480 6 1 48.232 41.444 41.473 
481 6 1  1.486 43.315 41.810 
482 6 1  3.483 44.823 41.142 
483 6 1  5.279 46.291 41.431 
484 6 1  6.216 48.298 42.183 
485 6 1  8.549 48.306 42.024 
486 6 1  9.591 49.312  7.137 
487 6 1 10.336 50.157  9.410 
488 6 1 11.371 51.100 11.523 
489 6 1 12.695 51.645 13.694 
490 6 1 14.003 52.160 15.834 
491 6 1 15.034 52.699 18.098 
492 6 1 16.949 51.361 19.169 
493 6 1 18.912 50.510 20.512 
494 6 1 18.898 48.532 22.073 
495 6 1 18.595 46.346 22.577 
496 6 1 17.777 44.109 21.925 
497 6 1 16.744 41.820 21.093 
498 6 1 15.228 39.793 20.820 
499 6 1 14.895 37.933 19.065 
500 6 1 14.570 36.063 17.458 
501 6 1 14.208 34.127 15.666 
502 6 1 14.147 32.311 13.870 
503 6 1 13.689 30.036 13.952 
504 6 1 13.428 27.707 15.068 
505 6 1 13.269 25.365 16.113 
506 6 1 11.226 23.834 16.157 
507 6 1  9.355 22.809 15.178 
508 6 1  9.572 21.757 12.837 
509 6 1 10.770 20.624 11.141 
510 6 1 13.011 19.698 10.166 
511 6 1 15.293 19.191 11.266 
512 6 1 17.575 18.422 12.207 
513 6 1 18.699 17.875 14.043 
514 6 1 19.220 17.674 16.519 
515 6 1 19.015 17.016 18.923 
516 6 1 18.558 16.736 21.472 
517 6 1 18.107 16.754 24.003 
518 6 1 17.631 16.871 26.584 
519 7 1 32.768 45.411 29.227 
520 7 1 31.386 47.386 28.471 
521 7 1 29.784 49.193 27.679 
522 7 1 28.150 50.762 29.015 
523 7 1 27.211 52.016 30.802 
524 7 1 26.666 52.853 33.170 
525 7 1 26.198 53.999 35.399 
526 7 1 25.739 55.329 37.529 
527 7 1 27.410 55.181 39.064 
528 7 1 28.844 54.079 40.812 
529 7 1 30.073 52.676 42.621 
530 7 1 31.143 51.255  7.311 
531 7 1 32.696 50.420  9.002 
532 7 1 34.696 50.585 10.541 
533 7 1 36.599 50.643 12.192 
534 7 1 36.930 50.953 14.823 
535 7 1 36.823 50.909 17.155 
536 7 1 35.145 52.505 18.415 
537 7 1 33.675 54.163 19.807 
538 7 1 31.446 55.386 20.003 
539 7 1 29.245 56.620 19.920 
540 7 1 27.545 55.288 21.076 
541 7 1 26.449 53.683 22.927 
542 7 1 25.687 51.781 24.522 
543 7 1 25.185 49.840 26.076 
544 7 1 24.572 47.800 27.587 
545 7 1 26.144 46.080 28.513 
546 7 1 27.833 44.269 29.201 
547 7 1 29.113 42.382 28.965 
548 7 1 29.668 40.093 27.744 
549 7 1 30.353 39.435 25.422 
550 7 1 31.255 39.084 23.055 
551 7 1 29.995 39.499 20.840 
552 7 1 29.522 37.646 19.249 
553 7 1 29.297 35.562 17.719 
554 7 1 28.676 33.525 16.254 
555 7 1 27.868 31.680 14.739 
556 7 1 27.497 29.777 13.147 
557 7 1 27.658 27.963 11.284 
558 7 1 27.907 26.264  9.466 
559 7 1 27.049 26.068  7.014 
560 7 1 27.430 24.298 42.298 
561 7 1 28.307 22.467 40.797 
562 7 1 29.523 20.571 39.619 
563 7 1 30.851 18.720 39.278 
564 7 1 32.902 17.464 39.957 
565 7 1 35.121 16.344 40.895 
566 7 1 37.136 15.175 41.946 
567 7 1 38.453 13.500 43.349 
568 7 1 40.901 13.647  6.957 
569 7 1 43.095 13.789  6.636 
570 7 1 45.292 14.420 43.087 
571 7 1 47.587 15.751 42.847 
572 7 1  1.856 16.775 42.941 
573 7 1  4.224 16.974 43.368 
574 7 1  6.660 16.354  6.848 
575 7 1  7.574 14.504  5.613 
576 7 1  5.622 12.747  5.508 
577 7 1  3.320 11.605 42.479 
578 7 1  1.204 11.193 43.188 
579 7 1 47.748 10.725  7.907 
580 7 1 45.865 10.014  9.044 
581 7 1 43.485  9.061  9.565 
582 7 1 41.015  8.707 10.193 
583 7 1 38.554  8.913 10.775 
584 7 1 36.928 10.253 11.734 
585 7 1 35.754 11.511  9.902 
586 7 1 34.249 12.499  8.181 
587 7 1 32.532 13.488  6.528 
588 7 1 30.520 14.099 42.306 
589 7 1 28.462 13.704 40.882 
590 7 1 26.044 14.311 41.604 
591 7 1 23.654 15.146 42.218 
592 7 1 21.371 15.551  6.207 
593 7 1 18.913 15.269 42.314 
594 7 1 17.012 14.320  6.633 
595 7 1 15.250 15.781  7.811 
596 7 1 13.172 17.018  6.881 
597 8 1  1.889 45.437 25.069 
598 8 1 47.432 45.784 25.161 
599 8 1 47.303 47.856 26.001 
600 8 1 46.888 50.091 26.433 
601 8 1 45.410 52.076 27.209 
602 8 1 44.003 54.124 27.908 
603 8 1 42.943 56.134 28.934 
604 8 1 42.209 -6.711 29.207 
605 8 1 43.015 -4.515 29.368 
606 8 1 45.553 -4.395 29.429 
607 8 1 47.748 -4.601 28.767 
608 8 1 48.274 -7.117 28.072 
609 8 1  1.260 55.756 27.497 
610 8 1  2.596 53.654 26.993 
611 8 1  3.995 51.622 26.323 
612 8 1  5.470 49.660 25.733 
613 8 1  6.809 47.494 25.301 
614 8 1  7.919 45.127 25.339 
615 8 1  7.475 43.244 23.634 
616 8 1  6.492 42.113 21.849 
617 8 1  4.975 41.983 19.868 
618 8 1  4.001 44.085 19.406 
619 8 1  2.926 46.173 20.399 
620 8 1  1.802 48.335 21.293 
621 8 1  0.693 50.523 22.125 
622 8 1  0.037 53.076 22.418 
623 8 1 48.066 55.577 22.753 
624 8 1 46.171 57.203 23.492 
625 8 1 44.613 -6.054 24.158 
626 8 1 43.229 -4.022 24.855 
627 8 1 41.859 -1.863 25.352 
628 8 1 40.422  0.107 25.974 
629 8 1 41.116  2.164 24.931 
630 8 1 42.615  4.147 24.357 
631 8 1 44.077  6.112 23.657 
632 8 1 46.272  6.860 24.842 
633 8 1 48.519  7.710 25.636 
634 8 1  1.414  9.039 27.699 
635 8 1  2.510 10.307 29.652 
636 8 1  3.687 11.314 31.749 
637 8 1  5.105 12.168 33.800 
638 8 1  6.276 13.159 35.805 
639 8 1  7.243 14.139 37.888 
640 8 1  7.677 16.615 38.486 
641 8 1  7.838 19.044 39.329 
642 8 1  7.936 21.427 40.114 
643 8 1  7.365 22.023 42.562 
644 8 1  6.787 21.443  7.511 
645 8 1  6.399 19.851  9.461 
646 8 1  6.019 19.373 11.694 
647 8 1  5.593 19.884 14.130 
648 8 1  5.266 20.432 16.635 
649 8 1  4.018 20.414 18.599 
650 8 1  2.045 19.185 18.143 
651 8 1  0.758 17.864 16.751 
652 8 1  1.947 17.251 14.532 
653 8 1  2.380 16.084 12.256 
654 8 1  2.924 15.027 10.030 
655 8 1  4.840 13.213  9.744 
656 8 1  6.784 11.531  9.814 
657 8 1  8.511  9.688 10.459 
658 8 1 10.798  9.255  9.851 
659 8 1 11.330 10.554  7.730 
660 8 1 11.785 12.320  5.860 
661 8 1 11.923 14.144 41.075 
662 8 1 11.821 15.961 39.326 
663 8 1 11.223 16.954 37.344 
664 8 1 10.258 16.589 35.015 
665 8 1  9.204 16.132 32.675 
666 8 1  8.080 15.761 30.362 
667 8 1  7.137 15.477 28.067 
668 8 1  4.715 15.602 27.280 
669 8 1  2.564 16.264 27.470 
670 8 1  0.348 16.841 28.496 
671 8 1 46.015 16.861 28.485 
672 8 1 45.231 16.234 26.096 
673 8 1 44.470 16.003 23.618 
674 8 1 44.695 16.510 21.306 
675 9 1  3.699 30.488 38.221 
676 9 1  5.106 28.398 38.909 
677 9 1  6.601 26.377 39.672 
678 9 1  5.832 24.652 38.637 
679 9 1  5.075 23.600 36.445 
680 9 1  4.187 22.472 34.306 
681 9 1  2.551 21.809 32.429 
682 9 1  3.133 21.760 29.833 
683 9 1  3.589 21.857 27.228 
684 9 1  4.485 21.039 25.289 
685 9 1  5.466 19.268 23.686 
686 9 1  6.277 17.543 21.953 
687 9 1  7.366 16.917 20.039 
688 9 1  8.821 17.176 17.959 
689 9 1 10.261 17.302 15.813 
690 9 1 12.789 16.860 15.578 
691 9 1 15.030 16.028 15.774 
692 9 1 16.849 14.380 16.587 
693 9 1 16.830 11.874 16.050 
694 9 1 17.079  9.195 15.939 
695 9 1 19.371  8.590 16.766 
696 9 1 21.776  8.527 17.616 
697 9 1 24.008  8.400 18.814 
698 9 1 26.033 10.020 18.683 
699 9 1 27.160 12.057 18.644 
700 9 1 27.202 14.611 18.914 
701 9 1 26.904 17.116 19.509 
702 9 1 26.848 19.654 19.861 
703 9 1 26.826 22.301 19.908 
704 9 1 26.977 24.620 20.754 
705 9 1 26.736 26.924 22.134 
706 9 1 26.081 29.119 23.175 
707 9 1 25.162 29.858 25.467 
708 9 1 24.081 31.097 27.373 
709 9 1 23.263 33.037 28.957 
710 9 1 22.351 34.802 30.539 
711 9 1 23.641 36.765 30.754 
712 9 1 24.305 39.124 30.027 
713 9 1 24.803 41.477 29.024 
714 9 1 24.862 41.298 26.651 
715 9 1 25.115 39.984 24.461 
716 9 1 25.049 38.800 22.162 
717 9 1 24.944 37.345 20.014 
718 9 1 24.719 35.973 17.836 
719 9 1 24.210 34.606 15.678 
720 9 1 23.993 33.090 13.579 
721 9 1 22.789 31.601 11.799 
722 9 1 23.155 29.238 10.829 
723 9 1 23.553 27.177  9.343 
724 9 1 22.196 25.943  7.689 
725 9 1 20.792 24.636  6.010 
726 9 1 20.008 23.249 41.096 
727 9 1 19.352 22.201 38.806 
728 9 1 18.681 21.392 36.419 
729 9 1 20.087 19.802 34.888 
730 9 1 21.470 18.242 33.461 
731 9 1 22.505 16.387 31.914 
732 9 1 22.706 15.810 29.404 
733 9 1 23.002 14.832 27.072 
734 9 1 21.478 13.032 26.133 
735 9 1 19.350 12.336 25.581 
736 9 1 16.836 12.604 25.650 
737 9 1 14.229 13.019 25.568 
738 9 1 11.718 13.602 26.174 
739 9 1 10.599 14.906 24.534 
740 9 1  8.964 13.482 23.048 
741 9 1  9.726 12.881 20.677 
742 9 1 10.439 12.413 18.274 
743 9 1 10.975 12.028 15.760 
744 9 1 12.235 11.231 14.015 
745 9 1 13.972  9.735 12.721 
746 9 1 15.338  8.188 11.276 
747 9 1 17.781  7.517 11.902 
748 9 1 19.964  6.861 13.059 
749 9 1 22.146  6.045 14.215 
750 9 1 24.329  5.339 15.408 
751 9 1 26.397  5.157 16.961 
752 9 1 28.289  6.028 17.959 
753 10 1 25.689 22.107 10.473 
754 10 1 23.357 21.029 10.561 
755 10 1 20.939 21.278  9.673 
756 10 1 19.334 20.564  7.942 
757 10 1 18.470 19.874  5.643 
758 10 1 17.455 19.017 40.642 
759 10 1 16.299 17.963 38.558 
760 10 1 16.188 15.341 38.041 
761 10 1 16.558 13.004 38.399 
762 10 1 19.143 12.476 38.831 
763 10 1 21.660 11.796 38.993 
764 10 1 23.239 10.525 40.590 
765 10 1 24.820  8.901 41.434 
766 10 1 25.878  6.513 41.415 
767 10 1 24.471  4.610 41.167 
768 10 1 24.747  2.998 43.100 
769 10 1 25.273  1.346  7.807 
770 10 1 26.564 -0.447  8.732 
771 10 1 28.447 -2.217  9.167 
772 10 1 30.321 -3.725  9.926 
773 10 1 32.408 -5.126 10.701 
774 10 1 34.488 -6.342 11.602 
775 10 1 36.819 -7.177 12.651 
776 10 1 38.824 56.404 13.395 
777 10 1 40.472 54.510 14.128 
778 10 1 42.931 53.868 13.988 
779 10 1 45.292 53.033 13.833 
780 10 1 47.519 51.642 13.465 
781 10 1  1.381 51.034 12.269 
782 10 1  1.655 49.997  9.940 
783 10 1  1.712 49.249  7.459 
784 10 1  1.597 48.869 42.042 
785 10 1  2.947 50.483 40.617 
786 10 1  2.659 52.948 41.066 
787 10 1  2.003 55.357 41.303 
788 10 1  1.355 -7.256 41.632 
789 10 1 48.305 -4.901 41.726 
790 10 1 46.867 -2.959 42.499 
791 10 1 47.707 -0.997  6.652 
792 10 1  0.165  0.658  8.466 
793 10 1  1.295  1.925 10.007 
794 10 1  0.669  1.626 12.243 
795 10 1 47.542  2.308 14.454 
796 10 1 46.121  3.350 16.234 
797 10 1 45.153  3.651 18.249 
798 10 1 43.928  2.765 20.107 
799 10 1 43.676  0.392 20.417 
800 10 1 44.256 -2.058 20.223 
801 10 1 45.066 -4.417 20.006 
802 10 1 47.101 -5.359 18.647 
803 10 1 47.948 -7.737 18.278 
804 10 1  1.045 55.152 17.648 
805 10 1  2.233 52.975 17.143 
806 10 1  3.337 50.794 16.951 
807 10 1  4.429 48.505 16.654 
808 10 1  5.844 46.324 16.031 
809 10 1  5.385 44.432 14.451 
810 10 1  5.021 42.331 13.002 
811 10 1  3.782 40.546 12.161 
812 10 1  1.737 39.059 12.020 
813 10 1 48.107 37.203 12.497 
814 10 1 46.461 35.612 12.233 
815 10 1 44.435 34.618 10.929 
816 10 1 42.370 33.602  9.916 
817 10 1 40.255 32.405  8.986 
818 10 1 38.138 31.142  8.078 
819 10 1 36.558 31.255  6.046 
820 10 1 35.216 30.725 41.165 
821 10 1 34.014 29.945 39.021 
822 10 1 32.773 29.529 36.847 
823 10 1 30.437 29.961 35.880 
824 10 1 28.168 30.751 35.166 
825 10 1 27.105 30.657 32.861 
826 10 1 27.127 29.707 30.651 
827 10 1 27.691 27.982 28.878 
828 10 1 28.443 26.121 27.240 
829 10 1 29.049 24.376 25.549 
830 10 1 28.530 21.915 25.489 
831 11 1 26.759 -6.470 42.076 
832 11 1 28.545 -7.451  6.334 
833 11 1 29.795 56.851  8.078 
834 11 1 30.330 55.740 10.108 
835 11 1 30.805 53.750 11.671 
836 11 1 30.242 51.609 12.686 
837 11 1 28.389 50.080 13.181 
838 11 1 25.880 49.383 13.482 
839 11 1 23.328 49.060 13.635 
840 11 1 20.823 48.586 13.657 
841 11 1 18.365 47.895 13.588 
842 11 1 15.805 47.383 13.532 
843 11 1 13.409 46.443 13.958 
844 11 1 11.450 46.157 12.381 
845 11 1  9.504 45.760 10.678 
846 11 1  7.381 44.939  9.330 
847 11 1  5.275 43.858  8.221 
848 11 1  4.660 41.394  7.923 
849 11 1  4.074 38.966  7.542 
850 11 1  3.528 36.445  6.824 
851 11 1  3.080 33.880  6.334 
852 11 1  2.383 31.441  6.108 
853 11 1  2.552 29.222  6.613 
854 11 1  3.887 27.024  7.063 
855 11 1  3.898 24.954  7.896 
856 11 1  2.614 22.879  8.657 
857 11 1  1.182 20.864  9.084 
858 11 1 -0.175 18.783  9.508 
859 11 1 46.601 16.750 10.048 
860 11 1 45.167 14.738 10.892 
861 11 1 43.668 12.890 11.819 
862 11 1 42.076 11.444 13.234 
863 11 1 41.804 10.262 15.137 
864 11 1 42.737  9.176 17.359 
865 11 1 43.848  7.758 19.310 
866 11 1 46.313  7.909 20.281 
867 11 1 48.705  8.435 20.750 
868 11 1  3.010  8.862 20.924 
869 11 1  5.175  9.108 20.206 
870 11 1  7.471  8.705 19.532 
871 11 1  9.780  7.577 19.728 
872 11 1 12.122  6.734 19.442 
873 11 1 14.591  6.337 19.207 
874 11 1 17.085  5.783 19.345 
875 11 1 19.504  4.761 19.752 
876 11 1 21.915  3.930 20.227 
877 11 1 24.320  3.212 20.680 
878 11 1 25.824  4.767 22.040 
879 11 1 26.706  4.575 24.486 
880 11 1 27.736  5.120 26.799 
881 11 1 28.640  6.068 28.984 
882 11 1 28.758  6.591 31.295 
883 11 1 28.393  6.148 33.837 
884 11 1 28.328  5.958 36.377 
885 11 1 29.702  4.185 37.611 
886 11 1 31.359  2.601 38.090 
887 11 1 33.698  1.449 37.489 
888 11 1 34.871 -0.306 36.581 
889 11 1 35.032 -2.615 35.728 
890 11 1 34.854 -5.118 35.035 
891 11 1 34.936 -7.592 34.353 
892 11 1 35.254 55.276 33.327 
893 11 1 36.065 53.098 32.277 
894 11 1 36.906 50.824 31.261 
895 11 1 37.696 48.587 30.337 
896 11 1 38.333 46.148 29.602 
897 11 1 38.596 43.818 30.271 
898 11 1 38.938 41.639 31.819 
899 11 1 39.596 39.542 33.093 
900 11 1 40.590 37.567 34.507 
901 11 1 41.735 35.383 35.422 
902 11 1 43.025 33.368 36.177 
903 11 1 44.101 31.083 36.705 
904 11 1 44.849 28.573 37.153 
905 11 1 44.951 25.922 37.107 
906 11 1 45.445 23.513 37.292 
907 11 1 46.929 21.807 37.158 
908 11 1 48.147 20.524 35.610 
909 12 1 34.418 20.500 36.898 
910 12 1 36.386 19.157 36.613 
911 12 1 38.450 18.187 36.898 
912 12 1 39.820 16.617 38.422 
913 12 1 41.290 14.910 39.178 
914 12 1 43.055 13.081 39.033 
915 12 1 44.902 11.263 39.094 
916 12 1 45.607 10.260 37.130 
917 12 1 45.444  8.986 34.915 
918 12 1 44.542  6.608 34.456 
919 12 1 44.193  4.076 34.023 
920 12 1 42.322  2.449 33.988 
921 12 1 41.030  0.890 35.323 
922 12 1 39.484 -0.342 36.325 
923 12 1 39.407 -2.905 35.770 
924 12 1 39.562 -5.436 35.114 
925 12 1 40.006 -7.576 33.780 
926 12 1 40.695 55.235 32.885 
927 12 1 41.452 52.865 32.104 
928 12 1 42.261 50.716 31.006 
929 12 1 41.723 50.049 28.619 
930 12 1 40.586 50.097 26.391 
931 12 1 39.013 51.974 26.871 
932 12 1 38.398 54.354 27.832 
933 12 1 38.055 56.488 29.268 
934 12 1 37.797 -6.386 30.500 
935 12 1 37.542 -3.891 31.174 
936 12 1 39.530 -2.390 31.944 
937 12 1 40.157 -0.307 30.456 
938 12 1 42.492  0.559 29.653 
939 12 1 44.913  1.112 29.009 
940 12 1 46.047  1.921 27.166 
941 12 1 47.131  1.879 24.824 
942 12 1 48.286  2.110 22.496 
943 12 1  1.164  2.657 20.161 
944 12 1  1.161  1.165 17.967 
945 12 1  3.244  0.277 16.835 
946 12 1  5.437 -0.347 15.566 
947 12 1  6.058  0.628 13.210 
948 12 1  5.727 -0.597 10.962 
949 12 1  7.701 -1.497  9.541 
950 12 1  9.328 -2.749  8.084 
951 12 1 10.946 -4.016  6.594 
952 12 1 12.926 -4.944 43.125 
953 12 1 15.280 -5.813  6.435 
954 12 1 15.726 -7.688  8.134 
955 12 1 16.141 55.866 10.073 
956 12 1 16.953 54.344 11.962 
957 12 1 17.613 52.392 13.470 
958 12 1 19.621 52.469 14.906 
959 12 1 21.651 52.513 15.989 
960 12 1 23.521 52.358 17.244 
961 12 1 25.310 51.552 18.594 
962 12 1 25.427 49.357 19.928 
963 12 1 23.926 47.773 19.129 
964 12 1 21.538 46.849 18.437 
965 12 1 19.307 45.694 17.742 
966 12 1 17.165 44.250 17.275 
967 12 1 15.246 42.686 16.919 
968 12 1 13.457 41.188 16.131 
969 12 1 11.816 39.338 15.402 
970 12 1  9.270 39.606 15.339 
971 12 1  6.742 39.954 15.616 
972 12 1  4.870 38.183 16.116 
973 12 1  2.962 36.589 16.722 
974 12 1  1.029 35.083 17.139 
975 12 1 47.347 33.489 17.950 
976 12 1 46.204 31.575 19.270 
977 12 1 45.702 29.418 20.432 
978 12 1 45.362 27.187 21.742 
979 12 1 44.716 24.999 22.862 
980 12 1 44.124 22.762 23.813 
981 12 1 43.453 20.502 24.717 
982 12 1 41.934 19.874 26.620 
983 12 1 41.540 18.853 28.731 
984 12 1 42.003 17.896 31.099 
985 12 1 43.033 17.482 33.427 
986 12 1 44.308 17.389 35.683 