LAMMPS data file generated by aa2cg.

2000 atoms
1 atom types
1975 bonds
1 bond types
1950 angles
1 angle types
1925 dihedrals
1 dihedral types

 0.000 57.965 xlo xhi
 0.000 44.821 ylo yhi
 0.000 44.677 zlo zhi

Masses

1 24.022

Atoms # molecular

1 1 1 40.617 12.899 14.910 
2 1 1 17.186 20.273 21.035 
3 2 1 47.807 22.653 20.015 
4 2 1 35.078  3.718 40.201 
5 3 1 45.572  3.408 17.673 
6 3 1 33.188  6.294 24.432 
7 4 1 15.056 37.172 18.628 
8 4 1 26.948 39.138 43.175 
9 5 1 13.147  5.362 24.054 
10 5 1 25.380 41.882  7.834 
11 6 1 26.540 21.438 16.963 
12 6 1  1.364 16.029 39.982 
13 7 1 12.425 40.739 40.533 
14 7 1 15.108 46.625 22.212 
15 8 1  9.106 24.168 32.134 
16 8 1 31.278 22.574 28.734 
17 9 1 35.842 25.521  2.260 
18 9 1 45.367 28.317 29.857 
19 10 1  4.286 21.803 32.055 
20 10 1 47.554 44.922 43.079 
21 11 1 32.096 14.142 39.973 
22 11 1 45.507 22.710 26.186 
23 12 1  6.719 31.302 12.336 
24 12 1 30.448 14.179 35.323 
25 13 1 31.229 18.155 45.876 
26 13 1 47.964 34.443 32.660 
27 14 1 50.613 34.055 37.007 
28 14 1 32.588 11.472 12.601 
29 15 1  6.731 29.789 28.399 
30 15 1 45.152 21.745  2.786 
31 16 1 31.375  5.780 38.911 
32 16 1 -1.290 29.714 44.047 
33 17 1 23.404  3.002 17.717 
34 17 1 25.958  6.924 28.577 
35 18 1 11.710 41.103  9.990 
36 18 1  2.448 40.428  7.114 
37 19 1 40.701 17.556 43.971 
38 19 1  6.405 13.288 12.448 
39 20 1 49.355 21.627  9.905 
40 20 1  9.972 24.415 24.795 
41 21 1 16.557 38.975  7.419 
42 21 1 26.953 22.900 21.072 
43 22 1 25.995 23.164  3.563 
44 22 1 21.759 26.311 42.777 
45 23 1 34.853 23.807 30.931 
46 23 1 32.201 32.009 27.350 
47 24 1 22.988 45.647  6.584 
48 24 1  1.959 26.225 29.219 
49 25 1  0.474  4.365 23.707 
50 25 1 20.294  4.780  7.531 
51 1 1 40.654 14.397 16.592 
52 1 1 41.444 16.476 17.881 
53 1 1 42.016 18.710 18.787 
54 1 1 43.080 20.809 19.708 
55 1 1 43.297 23.184 18.651 
56 1 1 44.536 25.377 19.635 
57 1 1 45.760 26.579 21.193 
58 1 1 46.654 26.991 23.614 
59 1 1 49.044 27.272 24.468 
60 1 1 49.855 27.669 26.928 
61 1 1 50.738 28.003 29.312 
62 1 1 51.541 28.078 31.683 
63 1 1 51.842 28.091 34.103 
64 1 1 51.113 27.828 36.401 
65 1 1 49.628 25.797 37.138 
66 1 1 48.044 23.846 37.714 
67 1 1 46.077 24.018 39.370 
68 1 1 44.967 22.516 41.034 
69 1 1 44.687 20.714 42.349 
70 1 1 44.956 18.650 40.827 
71 1 1 46.494 18.600 39.027 
72 1 1 47.349 19.206 36.664 
73 1 1 48.838 20.195 35.103 
74 1 1 50.457 18.522 34.110 
75 1 1 51.016 16.337 33.567 
76 1 1 50.419 13.872 33.561 
77 1 1 49.128 11.648 33.565 
78 1 1 48.373  9.218 33.672 
79 1 1 47.925  6.647 34.096 
80 1 1 47.250  4.145 34.464 
81 1 1 46.603  1.720 34.871 
82 1 1 45.409 44.202 35.300 
83 1 1 44.173 41.915 35.256 
84 1 1 42.601 40.789 36.828 
85 1 1 40.948 40.424 38.458 
86 1 1 39.408 39.984 40.191 
87 1 1 38.311 38.457 41.884 
88 1 1 37.222 37.138 43.747 
89 1 1 36.408 35.733 45.705 
90 1 1 36.481 35.222  3.297 
91 1 1 37.662 35.423  5.589 
92 1 1 39.324 37.105  5.635 
93 1 1 40.078 39.539  5.097 
94 1 1 40.946 41.989  4.794 
95 1 1 41.862 43.852  3.734 
96 1 1 43.516 45.307  2.426 
97 1 1 44.948 46.925 45.628 
98 1 1 46.048  3.893 44.092 
99 1 1 48.212  5.392 44.393 
100 1 1 48.158  7.495 43.375 
101 1 1 46.525  8.869 42.520 
102 1 1 44.388  8.939 43.502 
103 1 1 42.372  9.032 44.741 
104 1 1 40.031  8.461 45.470 
105 1 1 37.669  8.005 46.319 
106 1 1 35.410  7.683  2.648 
107 1 1 33.209  7.702  3.757 
108 1 1 30.766  7.648  4.569 
109 1 1 28.672  8.273  5.683 
110 1 1 27.413 10.470  5.338 
111 1 1 25.309 11.266  6.673 
112 1 1 23.390 12.084  8.128 
113 1 1 22.724 14.511  8.956 
114 1 1 21.800 16.620 10.175 
115 1 1 20.398 18.538 10.381 
116 1 1 18.566 20.277  9.981 
117 1 1 17.067 22.147  9.188 
118 1 1 16.280 22.596  6.738 
119 1 1 13.825 22.551  5.847 
120 1 1 11.958 21.551  5.216 
121 1 1 10.006 19.916  5.439 
122 1 1  8.046 19.380  7.233 
123 1 1  8.100 18.099  9.460 
124 1 1  9.084 17.434 11.456 
125 1 1 10.816 17.932 13.312 
126 1 1 12.205 18.727 15.317 
127 1 1 13.913 19.296 17.199 
128 1 1 15.448 19.742 19.209 
129 2 1 48.836 22.781 22.352 
130 2 1 49.826 22.735 24.786 
131 2 1 49.242 23.808 27.018 
132 2 1 48.754 24.453 29.448 
133 2 1 47.833 25.030 31.617 
134 2 1 46.167 25.329 33.590 
135 2 1 44.500 25.374 35.505 
136 2 1 42.714 26.253 36.556 
137 2 1 40.328 26.374 35.371 
138 2 1 37.921 26.429 34.519 
139 2 1 37.819 27.604 32.444 
140 2 1 38.818 28.565 30.252 
141 2 1 39.557 29.904 28.240 
142 2 1 40.447 31.320 26.219 
143 2 1 40.889 33.274 24.687 
144 2 1 41.929 35.248 24.066 
145 2 1 44.150 35.873 25.249 
146 2 1 46.228 36.417 26.581 
147 2 1 48.052 36.783 28.266 
148 2 1 49.847 37.168 30.031 
149 2 1 51.865 37.084 31.679 
150 2 1 53.229 38.960 31.768 
151 2 1 -4.387 41.468 31.948 
152 2 1 -3.874 43.592 31.301 
153 2 1 52.663 44.484 29.396 
154 2 1 51.118 43.768 27.762 
155 2 1 49.347 42.314 26.557 
156 2 1 47.946 40.943 24.865 
157 2 1 46.392 39.954 23.160 
158 2 1 44.923 38.743 21.443 
159 2 1 45.419 38.229 19.254 
160 2 1 45.397 37.792 16.928 
161 2 1 44.862 36.332 14.819 
162 2 1 44.236 34.989 12.758 
163 2 1 43.250 33.809 10.574 
164 2 1 40.802 32.928  9.658 
165 2 1 38.336 32.782  8.651 
166 2 1 35.937 32.477  7.744 
167 2 1 33.526 31.839  6.940 
168 2 1 32.621 29.549  6.051 
169 2 1 30.726 28.926  4.345 
170 2 1 28.461 28.854  3.572 
171 2 1 26.705 30.361  3.765 
172 2 1 25.374 32.212  3.105 
173 2 1 26.208 33.435 45.689 
174 2 1 26.894 34.581 43.429 
175 2 1 27.448 35.647 41.058 
176 2 1 28.084 36.531 38.756 
177 2 1 29.459 36.823 36.733 
178 2 1 31.559 36.111 35.570 
179 2 1 33.641 35.845 33.938 
180 2 1 36.118 36.157 34.333 
181 2 1 36.924 38.314 34.784 
182 2 1 37.243 40.579 35.550 
183 2 1 37.652 42.998 35.257 
184 2 1 37.702 45.579 34.991 
185 2 1 39.813 46.894 34.774 
186 2 1 41.446  3.993 35.345 
187 2 1 42.897  5.653 33.976 
188 2 1 44.059  6.263 32.090 
189 2 1 42.712  7.040 29.970 
190 2 1 43.281  6.299 27.643 
191 2 1 43.826  5.385 25.297 
192 2 1 44.297  4.696 22.846 
193 2 1 42.705  2.967 21.612 
194 2 1 40.755  4.075 21.943 
195 2 1 39.063  5.243 23.494 
196 2 1 38.332  4.341 25.827 
197 2 1 36.076  4.770 27.050 
198 2 1 35.148  2.961 28.669 
199 2 1 34.684 46.220 30.683 
200 2 1 34.932 44.509 32.218 
201 2 1 33.723 42.243 31.900 
202 2 1 32.167 40.550 32.332 
203 2 1 32.486 40.681 34.743 
204 2 1 32.845 42.490 36.591 
205 2 1 33.039 44.633 37.991 
206 2 1 33.371 46.634 39.581 
207 3 1 43.740  2.968 15.848 
208 3 1 41.868  2.431 14.048 
209 3 1 41.644 44.954 12.811 
210 3 1 39.574 43.389 12.969 
211 3 1 37.333 42.246 13.038 
212 3 1 35.182 41.052 12.998 
213 3 1 32.672 40.173 13.115 
214 3 1 30.364 39.058 13.431 
215 3 1 27.866 38.594 13.888 
216 3 1 25.934 39.790 14.707 
217 3 1 24.600 41.632 15.843 
218 3 1 25.400 44.006 16.554 
219 3 1 27.040 45.531 17.047 
220 3 1 29.183 46.905 16.825 
221 3 1 30.769  3.980 16.447 
222 3 1 32.647  5.806 16.184 
223 3 1 34.573  7.589 16.196 
224 3 1 36.433  9.331 16.141 
225 3 1 38.663  9.209 14.853 
226 3 1 40.644  8.357 14.171 
227 3 1 40.363  6.476 12.266 
228 3 1 40.144  4.881 10.393 
229 3 1 39.280  2.467 10.001 
230 3 1 38.263 45.164  8.997 
231 3 1 37.339 43.105  7.823 
232 3 1 36.712 40.972  7.817 
233 3 1 36.360 38.709  9.021 
234 3 1 35.131 36.871  9.869 
235 3 1 32.992 35.536 10.363 
236 3 1 30.564 36.236 10.030 
237 3 1 28.093 36.883  9.866 
238 3 1 25.710 37.725  9.347 
239 3 1 24.021 39.043 10.742 
240 3 1 22.058 40.470 11.920 
241 3 1 19.541 40.224 12.133 
242 3 1 17.760 41.991 11.743 
243 3 1 16.172 43.959 11.766 
244 3 1 13.840 44.127 13.020 
245 3 1 11.958 43.535 14.269 
246 3 1 10.069 42.231 14.608 
247 3 1  7.853 41.043 14.056 
248 3 1  5.597 40.030 13.703 
249 3 1  3.112 39.300 13.195 
250 3 1  0.727 38.522 13.294 
251 3 1  0.682 37.439 15.557 
252 3 1  1.281 36.930 17.869 
253 3 1  2.826 36.415 19.902 
254 3 1  4.311 35.715 21.910 
255 3 1  5.549 34.775 24.032 
256 3 1  6.858 34.038 26.081 
257 3 1  8.479 33.647 28.066 
258 3 1  9.966 33.472 30.080 
259 3 1 12.404 34.244 29.948 
260 3 1 14.730 34.924 29.005 
261 3 1 17.037 35.375 27.836 
262 3 1 19.123 35.967 26.377 
263 3 1 20.959 36.749 24.683 
264 3 1 22.810 37.950 23.143 
265 3 1 24.478 39.015 21.636 
266 3 1 26.338 40.084 20.199 
267 3 1 28.025 41.162 18.535 
268 3 1 29.885 42.318 17.198 
269 3 1 31.903 43.712 16.218 
270 3 1 33.939 45.298 16.096 
271 3 1 36.101 46.729 16.418 
272 3 1 38.103  3.414 17.108 
273 3 1 40.103  4.979 17.284 
274 3 1 41.311  6.777 18.044 
275 3 1 41.381  9.042 19.143 
276 3 1 41.502 11.261 20.356 
277 3 1 41.253 13.462 21.626 
278 3 1 41.086 13.785 24.143 
279 3 1 40.682 13.944 26.760 
280 3 1 38.482 14.091 27.964 
281 3 1 36.287 13.786 27.837 
282 3 1 34.165 13.241 26.392 
283 3 1 33.997 11.371 25.028 
284 3 1 33.564  8.867 24.649 
285 4 1 12.746 37.898 19.683 
286 4 1 10.425 38.483 20.460 
287 4 1  7.988 39.036 20.778 
288 4 1  5.864 39.817 19.860 
289 4 1  4.014 40.535 18.278 
290 4 1  1.887 41.286 17.914 
291 4 1 -0.349 42.349 18.614 
292 4 1 -0.984 42.953 21.030 
293 4 1 -0.275 43.490 23.258 
294 4 1  1.812 42.770 24.618 
295 4 1  3.874 41.734 25.808 
296 4 1  5.704 40.441 27.028 
297 4 1  7.230 39.302 28.683 
298 4 1  8.611 37.847 30.270 
299 4 1 10.709 38.712 30.965 
300 4 1 12.743 39.582 31.147 
301 4 1 14.247 39.457 29.419 
302 4 1 14.303 40.619 27.399 
303 4 1 14.469 42.725 25.982 
304 4 1 12.854 44.794 25.874 
305 4 1 11.168 46.081 24.889 
306 4 1  9.515 47.014 23.144 
307 4 1  7.771  3.303 21.680 
308 4 1  5.754  4.142 20.394 
309 4 1  5.474  4.590 17.819 
310 4 1  4.973  5.290 15.430 
311 4 1  5.354  5.741 13.189 
312 4 1  6.775  6.389 11.057 
313 4 1  7.081  8.800 10.094 
314 4 1  7.715  9.334  7.612 
315 4 1  8.709  9.754  5.413 
316 4 1 10.122 10.272  3.340 
317 4 1 11.636  9.524 46.283 
318 4 1 11.800  8.493 44.172 
319 4 1 11.424  8.208 41.634 
320 4 1 11.238  7.214 39.203 
321 4 1 10.990  5.629 37.061 
322 4 1 10.515  4.454 34.737 
323 4 1  8.132  3.729 34.069 
324 4 1  5.781  2.702 33.666 
325 4 1  3.989  3.575 31.976 
326 4 1  2.324  4.428 30.320 
327 4 1  1.517  5.850 28.568 
328 4 1  1.126  8.041 27.425 
329 4 1  0.025  9.723 26.190 
330 4 1 -0.903 10.549 23.949 
331 4 1 -0.643  9.636 21.522 
332 4 1 -1.403 10.604 19.286 
333 4 1 -2.092 11.264 16.861 
334 4 1 -2.772 11.597 14.330 
335 4 1 -3.584 11.893 11.958 
336 4 1 -4.187 12.300  9.473 
337 4 1 53.131 12.118  7.010 
338 4 1 -3.375 12.582  5.028 
339 4 1 -2.066 12.798  2.769 
340 4 1 -1.048 12.963 45.052 
341 4 1 -2.156 12.818 42.702 
342 4 1 -1.280 12.887 40.306 
343 4 1 -1.752 10.768 39.197 
344 4 1 -2.313  8.316 38.830 
345 4 1 -2.642  5.799 38.584 
346 4 1 -2.827  3.268 38.241 
347 4 1 -2.643 45.611 37.904 
348 4 1 -2.305 43.072 37.777 
349 4 1 -4.131 41.442 37.475 
350 4 1 51.962 40.192 36.191 
351 4 1 49.885 39.483 35.652 
352 4 1 47.763 38.835 36.143 
353 4 1 46.040 37.318 37.320 
354 4 1 44.430 35.940 38.727 
355 4 1 42.368 35.206 39.515 
356 4 1 39.872 35.483 39.071 
357 4 1 37.403 35.421 38.478 
358 4 1 35.280 36.023 38.500 
359 4 1 33.358 37.820 39.043 
360 4 1 31.866 39.686 39.994 
361 4 1 30.180 40.777 41.127 
362 4 1 27.892 41.077 42.393 
363 5 1 15.632  5.393 24.712 
364 5 1 18.149  5.479 25.067 
365 5 1 20.690  5.517 25.165 
366 5 1 23.258  5.735 24.825 
367 5 1 25.725  6.270 24.291 
368 5 1 27.433  7.674 23.924 
369 5 1 28.526  9.936 23.570 
370 5 1 30.004 11.952 23.367 
371 5 1 29.643 14.501 23.894 
372 5 1 31.338 16.358 24.538 
373 5 1 33.003 17.915 25.581 
374 5 1 34.725 19.665 26.478 
375 5 1 36.598 21.142 27.482 
376 5 1 38.463 22.235 28.731 
377 5 1 40.306 23.225 30.317 
378 5 1 42.212 22.997 31.798 
379 5 1 43.799 21.120 32.620 
380 5 1 43.235 19.051 34.051 
381 5 1 42.321 17.351 35.780 
382 5 1 40.908 16.025 37.434 
383 5 1 39.300 14.571 38.962 
384 5 1 37.682 12.972 39.061 
385 5 1 35.700 11.654 38.173 
386 5 1 33.627 10.496 37.098 
387 5 1 31.831  9.069 35.990 
388 5 1 30.431  7.373 34.904 
389 5 1 28.049  7.660 33.848 
390 5 1 28.286  9.203 32.167 
391 5 1 26.596 10.718 32.288 
392 5 1 24.133 10.995 32.118 
393 5 1 22.004 12.044 32.150 
394 5 1 21.686 13.851 30.451 
395 5 1 19.390 14.888 30.330 
396 5 1 18.904 15.940 32.382 
397 5 1 18.722 16.257 34.856 
398 5 1 16.810 15.486 36.016 
399 5 1 14.482 15.768 37.101 
400 5 1 12.351 16.159 38.488 
401 5 1 10.535 16.473 40.288 
402 5 1  9.137 18.512 40.872 
403 5 1  7.995 20.683 41.579 
404 5 1  6.721 22.780 42.311 
405 5 1  5.436 24.884 42.806 
406 5 1  4.333 27.147 42.805 
407 5 1  3.113 29.180 42.162 
408 5 1  1.926 31.062 40.821 
409 5 1  0.527 33.077 40.242 
410 5 1  1.015 34.450 37.958 
411 5 1  2.263 36.220 38.623 
412 5 1  4.195 37.343 39.791 
413 5 1  5.156 38.595 41.495 
414 5 1  5.068 40.015 43.630 
415 5 1  3.002 40.716 44.994 
416 5 1  0.773 41.217 46.318 
417 5 1 -0.078 42.763  3.626 
418 5 1 -2.354 42.894  3.812 
419 5 1 -3.098 45.325  3.149 
420 5 1 -2.639  2.552  2.241 
421 5 1 -2.516  4.227 45.155 
422 5 1 -3.818  6.087 44.010 
423 5 1 52.726  7.945 42.937 
424 5 1 51.562  9.853 43.070 
425 5 1 50.800 11.935 44.419 
426 5 1 49.155 11.955 46.060 
427 5 1 46.565 11.897 46.602 
428 5 1 44.127 12.351  2.769 
429 5 1 41.772 12.718  3.745 
430 5 1 39.477 12.748  4.715 
431 5 1 37.402 11.932  5.434 
432 5 1 35.461 10.924  6.130 
433 5 1 33.435 10.518  7.832 
434 5 1 32.163  9.074  9.247 
435 5 1 31.525  6.827 10.296 
436 5 1 30.860  4.622 11.372 
437 5 1 30.357  2.314 12.283 
438 5 1 29.253 45.036 12.456 
439 5 1 27.139 43.581 12.290 
440 5 1 26.167 42.740 10.074 
441 6 1 24.071 21.369 17.829 
442 6 1 22.161 20.808 19.340 
443 6 1 21.622 18.338 19.305 
444 6 1 20.941 15.797 19.368 
445 6 1 19.633 13.512 19.667 
446 6 1 18.198 11.878 18.810 
447 6 1 17.191 10.235 17.112 
448 6 1 18.518  8.123 16.354 
449 6 1 19.628  8.329 14.311 
450 6 1 20.335  8.848 12.110 
451 6 1 20.180  9.184  9.501 
452 6 1 20.259  9.506  6.955 
453 6 1 21.436  9.195  4.939 
454 6 1 23.375  8.681  3.297 
455 6 1 25.590  8.416 46.632 
456 6 1 27.917  8.361 45.433 
457 6 1 30.270  8.194 44.338 
458 6 1 32.655  8.202 43.334 
459 6 1 34.968  8.396 42.304 
460 6 1 37.387  8.533 41.478 
461 6 1 39.660  8.511 40.259 
462 6 1 42.043  9.240 39.120 
463 6 1 43.236 10.007 37.225 
464 6 1 43.760 10.573 34.835 
465 6 1 43.985 11.194 32.328 
466 6 1 44.094 10.833 29.770 
467 6 1 44.015 10.471 27.206 
468 6 1 43.849  9.864 24.731 
469 6 1 44.715  9.253 22.695 
470 6 1 46.430  8.846 20.684 
471 6 1 46.910  8.043 18.583 
472 6 1 46.228  7.533 16.137 
473 6 1 45.536  6.601 13.882 
474 6 1 44.926  5.782 11.588 
475 6 1 45.239  5.481  9.422 
476 6 1 46.294  7.485  8.308 
477 6 1 47.712  9.260  6.915 
478 6 1 49.185 10.005  8.441 
479 6 1 49.494 10.361 10.903 
480 6 1 49.775 10.432 13.493 
481 6 1 50.403 10.638 15.974 
482 6 1 51.197 11.021 18.429 
483 6 1 52.082 11.056 20.707 
484 6 1 52.511 11.081 23.239 
485 6 1 52.813 11.306 25.787 
486 6 1 53.208 11.121 28.295 
487 6 1 -4.112 11.132 30.693 
488 6 1 52.917  9.557 32.428 
489 6 1 52.398  7.682 34.126 
490 6 1 51.810  5.850 35.787 
491 6 1 50.923  4.135 37.501 
492 6 1 50.135  2.287 39.179 
493 6 1 50.973  2.225 41.611 
494 6 1 51.678  2.262 44.134 
495 6 1 50.305  1.940 46.241 
496 6 1 48.766 46.625  3.688 
497 6 1 47.164 47.184  5.598 
498 6 1 47.317 46.771  8.202 
499 6 1 46.924 46.179 10.675 
500 6 1 46.757 45.413 13.068 
501 6 1 47.881 44.356 14.674 
502 6 1 48.765 42.366 15.502 
503 6 1 48.954 40.484 16.929 
504 6 1 49.550 39.052 18.993 
505 6 1 50.009 37.208 20.853 
506 6 1 51.225 37.315 23.120 
507 6 1 52.862 36.823 25.056 
508 6 1 -3.474 36.194 26.906 
509 6 1 -2.197 35.549 29.042 
510 6 1 -1.047 34.579 31.301 
511 6 1  0.206 33.936 33.445 
512 6 1  0.928 31.786 34.666 
513 6 1  1.986 29.832 36.046 
514 6 1  3.007 27.782 37.212 
515 6 1  3.023 25.545 38.009 
516 6 1  2.437 23.289 39.111 
517 6 1  1.956 20.790 39.578 
518 6 1  1.371 18.376 39.898 
519 7 1 10.148 40.761 39.550 
520 7 1  7.734 41.154 38.768 
521 7 1  5.807 41.493 37.085 
522 7 1  3.922 42.871 37.250 
523 7 1  2.455 42.038 39.271 
524 7 1  1.060 41.180 41.172 
525 7 1 -0.494 39.101 40.975 
526 7 1 -0.177 37.477 42.613 
527 7 1  1.726 36.042 43.585 
528 7 1  4.060 35.002 44.242 
529 7 1  5.901 33.918 42.730 
530 7 1  6.642 32.731 40.907 
531 7 1  6.228 32.425 38.506 
532 7 1  5.952 32.952 36.015 
533 7 1  5.336 33.578 33.578 
534 7 1  4.699 34.548 31.358 
535 7 1  3.874 35.812 29.301 
536 7 1  2.665 37.002 27.202 
537 7 1  1.290 37.970 25.275 
538 7 1 -0.276 38.334 23.262 
539 7 1 -1.773 38.281 21.190 
540 7 1 -3.122 38.059 19.021 
541 7 1 -4.187 38.284 16.680 
542 7 1 -4.828 38.143 14.270 
543 7 1 51.617 39.813 12.944 
544 7 1 51.005 41.775 11.757 
545 7 1 51.924 44.110 11.127 
546 7 1 53.077 46.418 11.300 
547 7 1 -4.001 46.887 13.430 
548 7 1 -3.730  2.351 15.904 
549 7 1 -3.453  2.259 18.384 
550 7 1 -3.584 46.859 20.932 
551 7 1 -3.814 46.609 23.429 
552 7 1 -2.867 46.220 25.531 
553 7 1 -0.892 45.792 27.090 
554 7 1  1.117 45.031 28.389 
555 7 1  3.056 44.170 29.787 
556 7 1  5.139 43.514 31.114 
557 7 1  7.230 42.627 32.121 
558 7 1  9.304 42.155 33.622 
559 7 1 11.347 41.371 34.946 
560 7 1 13.428 40.665 36.178 
561 7 1 15.621 39.541 36.873 
562 7 1 17.922 38.691 37.752 
563 7 1 20.029 38.213 36.368 
564 7 1 22.091 37.628 35.061 
565 7 1 23.856 37.231 33.320 
566 7 1 26.413 37.828 33.564 
567 7 1 28.349 36.534 32.577 
568 7 1 29.711 37.192 30.543 
569 7 1 31.354 37.628 28.523 
570 7 1 33.571 36.610 27.769 
571 7 1 35.943 37.477 28.372 
572 7 1 37.485 38.174 29.778 
573 7 1 39.301 36.753 30.004 
574 7 1 41.680 35.879 29.658 
575 7 1 43.299 34.314 29.536 
576 7 1 44.960 32.622 28.964 
577 7 1 45.474 31.395 26.856 
578 7 1 44.754 29.974 25.101 
579 7 1 43.150 28.017 25.751 
580 7 1 42.249 25.561 25.998 
581 7 1 41.374 23.455 24.679 
582 7 1 41.039 21.364 23.209 
583 7 1 40.497 19.052 24.190 
584 7 1 38.330 17.565 24.473 
585 7 1 37.683 15.379 22.995 
586 7 1 36.781 13.780 21.245 
587 7 1 35.719 12.404 19.319 
588 7 1 33.920 10.459 19.702 
589 7 1 32.194  8.509 20.068 
590 7 1 30.465  6.644 20.234 
591 7 1 28.906  4.726 20.625 
592 7 1 26.935  3.095 21.069 
593 7 1 24.943  1.514 21.572 
594 7 1 22.672 45.892 22.155 
595 7 1 20.152 46.057 22.408 
596 7 1 17.635 46.361 22.498 
597 8 1  8.186 24.933 30.221 
598 8 1  6.741 25.518 28.598 
599 8 1  5.573 25.415 26.373 
600 8 1  4.279 25.600 24.269 
601 8 1  3.475 26.517 22.000 
602 8 1  2.851 27.639 19.824 
603 8 1  2.233 28.841 17.492 
604 8 1  3.793 30.333 16.400 
605 8 1  3.553 32.768 15.817 
606 8 1  4.087 34.999 14.814 
607 8 1  6.295 35.772 13.745 
608 8 1  8.246 36.477 12.228 
609 8 1 10.149 36.054 11.130 
610 8 1 12.018 34.523 10.380 
611 8 1 13.934 33.066  9.657 
612 8 1 15.884 31.651  8.716 
613 8 1 17.797 29.914  8.105 
614 8 1 17.510 27.970  6.312 
615 8 1 17.050 26.358  4.407 
616 8 1 16.825 24.636  2.485 
617 8 1 16.855 23.139 45.080 
618 8 1 17.533 22.634 42.956 
619 8 1 17.759 23.127 40.782 
620 8 1 17.598 25.425 40.651 
621 8 1 18.001 27.379 41.754 
622 8 1 17.802 28.837 43.792 
623 8 1 15.932 28.931 45.452 
624 8 1 15.590 30.750 47.340 
625 8 1 13.665 31.664  4.287 
626 8 1 12.444 33.312  5.787 
627 8 1 11.484 35.304  6.286 
628 8 1 10.349 37.524  5.500 
629 8 1  8.950 39.528  4.687 
630 8 1  7.287 41.064  3.658 
631 8 1  5.834 42.830  3.692 
632 8 1  4.348 44.379  5.108 
633 8 1  4.430 45.735  7.286 
634 8 1  4.368  2.340  9.437 
635 8 1  2.161  3.396 10.454 
636 8 1  1.187  2.872 12.776 
637 8 1  0.956 46.191 14.548 
638 8 1  3.199 45.601 15.828 
639 8 1  5.408 44.880 17.060 
640 8 1  7.528 44.052 18.135 
641 8 1  9.716 43.448 19.382 
642 8 1 11.877 42.821 20.854 
643 8 1 14.262 42.199 21.393 
644 8 1 16.797 41.842 21.668 
645 8 1 18.994 42.297 21.304 
646 8 1 20.902 43.158 19.773 
647 8 1 20.620 43.433 17.206 
648 8 1 20.030 43.758 14.692 
649 8 1 21.713 45.057 13.634 
650 8 1 23.545 46.603 13.088 
651 8 1 25.213  3.736 12.389 
652 8 1 27.085  4.685 13.929 
653 8 1 26.393  6.795 14.402 
654 8 1 24.693  8.681 14.892 
655 8 1 23.443 10.863 15.079 
656 8 1 22.436 13.185 14.988 
657 8 1 20.886 15.210 14.566 
658 8 1 18.647 16.539 14.027 
659 8 1 16.658 17.217 12.855 
660 8 1 14.911 17.374 10.952 
661 8 1 13.858 17.999  8.634 
662 8 1 15.488 18.207  6.614 
663 8 1 17.648 17.829  5.737 
664 8 1 19.909 17.597  5.097 
665 8 1 21.996 17.848  3.517 
666 8 1 24.016 18.293  2.054 
667 8 1 25.982 18.308 44.904 
668 8 1 27.787 18.330 43.088 
669 8 1 29.593 18.577 41.314 
670 8 1 31.618 19.031 39.763 
671 8 1 31.651 18.956 37.075 
672 8 1 32.219 18.507 34.616 
673 8 1 31.407 19.843 32.854 
674 8 1 30.833 21.120 30.853 
675 9 1 37.363 26.010 44.947 
676 9 1 39.553 27.276 44.724 
677 9 1 41.257 25.872 45.163 
678 9 1 42.322 26.380 47.481 
679 9 1 41.851 25.146  4.956 
680 9 1 41.570 24.223  7.418 
681 9 1 42.994 22.455  8.614 
682 9 1 44.384 20.612  9.263 
683 9 1 46.095 18.771  8.603 
684 9 1 47.269 18.688  6.283 
685 9 1 48.470 18.870  4.122 
686 9 1 49.341 19.221 46.481 
687 9 1 49.797 19.606 43.963 
688 9 1 50.403 20.341 41.575 
689 9 1 51.638 21.339 39.539 
690 9 1 52.863 22.544 37.631 
691 9 1 53.058 21.628 35.266 
692 9 1 53.581 22.871 33.080 
693 9 1 -3.946 23.936 30.791 
694 9 1 -3.674 24.508 28.247 
695 9 1 -4.078 24.707 25.691 
696 9 1 -4.399 24.846 23.100 
697 9 1 53.003 25.081 20.636 
698 9 1 52.602 25.068 18.124 
699 9 1 52.181 24.997 15.586 
700 9 1 51.665 24.914 13.077 
701 9 1 49.360 25.377 12.113 
702 9 1 46.973 25.818 11.230 
703 9 1 46.062 26.390  8.797 
704 9 1 46.411 26.097  6.506 
705 9 1 47.753 25.233  4.500 
706 9 1 49.431 23.304  4.726 
707 9 1 51.215 21.487  5.189 
708 9 1 53.026 19.738  5.784 
709 9 1 -3.087 18.166  6.450 
710 9 1 -1.131 16.616  6.929 
711 9 1 -0.115 14.807  7.826 
712 9 1  0.358 13.194  9.328 
713 9 1  1.105 12.214 11.631 
714 9 1  1.764 11.085 13.888 
715 9 1  2.552  9.951 16.126 
716 9 1  3.533  8.471 17.846 
717 9 1  3.260  8.861 20.432 
718 9 1  4.322  7.672 22.412 
719 9 1  5.512  6.481 24.291 
720 9 1  7.085  5.512 26.198 
721 9 1  9.023  5.189 27.843 
722 9 1 10.882  4.596 29.519 
723 9 1 12.911  3.541 29.999 
724 9 1 15.275  2.712 29.117 
725 9 1 17.587  2.028 28.413 
726 9 1 19.903 47.049 28.054 
727 9 1 22.261  2.719 28.432 
728 9 1 24.663  2.331 28.554 
729 9 1 27.140  2.070 27.985 
730 9 1 28.356  2.606 25.774 
731 9 1 30.836  2.130 25.305 
732 9 1 33.321 46.423 24.636 
733 9 1 35.721 45.926 24.123 
734 9 1 37.928 44.980 23.405 
735 9 1 38.783 43.579 21.448 
736 9 1 39.962 43.969 19.206 
737 9 1 42.474 43.441 18.747 
738 9 1 44.778 43.811 18.906 
739 9 1 46.729 44.110 20.083 
740 9 1 46.529 44.741 22.506 
741 9 1 46.391 45.482 24.898 
742 9 1 45.989 45.898 27.393 
743 9 1 44.898 45.800 29.616 
744 9 1 43.461 45.265 31.732 
745 9 1 41.784 43.275 31.894 
746 9 1 40.601 40.884 31.972 
747 9 1 41.407 38.719 32.981 
748 9 1 42.564 36.618 33.795 
749 9 1 43.853 34.432 34.451 
750 9 1 43.029 31.976 34.145 
751 9 1 42.849 29.713 33.321 
752 9 1 43.329 28.066 31.372 
753 10 1  3.728 19.624 33.220 
754 10 1  3.274 17.344 34.336 
755 10 1  2.682 15.004 35.240 
756 10 1  1.988 12.655 36.018 
757 10 1  1.408 10.070 36.545 
758 10 1  1.145  7.513 36.397 
759 10 1  0.877  5.024 35.943 
760 10 1  0.705  2.963 34.634 
761 10 1  0.575 45.633 33.836 
762 10 1  0.527 43.187 34.293 
763 10 1 -0.003 40.858 34.638 
764 10 1 -1.492 38.720 34.994 
765 10 1 -3.026 36.630 35.283 
766 10 1 -3.496 35.787 37.750 
767 10 1 -3.951 35.099 40.278 
768 10 1 -4.603 34.706 42.763 
769 10 1 52.417 35.498 44.856 
770 10 1 50.247 36.877 44.790 
771 10 1 48.084 38.179 44.652 
772 10 1 46.084 38.743 43.702 
773 10 1 46.031 39.716 41.514 
774 10 1 46.918 41.042 39.857 
775 10 1 48.491 42.581 38.545 
776 10 1 50.032 43.960 37.043 
777 10 1 51.634 45.518 35.589 
778 10 1 53.166 46.829 34.063 
779 10 1 -3.269  2.999 32.274 
780 10 1 -1.742  5.164 32.308 
781 10 1 -0.733  7.524 32.452 
782 10 1 -0.166  9.954 32.436 
783 10 1  0.198 12.445 31.885 
784 10 1  0.113 13.601 29.648 
785 10 1 -0.025 14.675 27.357 
786 10 1 -0.980 15.061 25.265 
787 10 1 -2.807 14.946 23.623 
788 10 1 -4.741 14.985 21.896 
789 10 1 51.148 16.256 22.031 
790 10 1 49.254 17.638 22.970 
791 10 1 49.033 18.464 25.398 
792 10 1 48.640 19.131 27.808 
793 10 1 48.091 19.280 30.377 
794 10 1 47.052 17.361 31.189 
795 10 1 46.773 15.831 32.952 
796 10 1 46.004 15.091 35.286 
797 10 1 45.656 14.256 37.710 
798 10 1 45.028 13.436 39.948 
799 10 1 43.981 12.803 42.135 
800 10 1 41.541 12.764 43.095 
801 10 1 39.128 12.420 44.053 
802 10 1 36.685 12.129 44.904 
803 10 1 34.347 11.852 45.803 
804 10 1 32.007 11.596 46.894 
805 10 1 30.897 13.262  3.867 
806 10 1 29.326 14.872  5.156 
807 10 1 28.427 15.363  7.553 
808 10 1 27.343 16.215  9.763 
809 10 1 26.035 17.398 11.688 
810 10 1 24.867 18.409 13.826 
811 10 1 22.616 19.565 14.320 
812 10 1 20.478 20.876 15.137 
813 10 1 18.179 21.555 14.981 
814 10 1 15.847 21.874 13.988 
815 10 1 13.631 22.368 12.766 
816 10 1 11.950 22.991 10.979 
817 10 1 10.170 23.473  9.278 
818 10 1  8.870 24.300  7.417 
819 10 1  8.189 25.840  5.477 
820 10 1  7.373 27.252  3.472 
821 10 1  6.039 28.898 47.234 
822 10 1  4.163 30.624 47.216 
823 10 1  2.189 32.212 47.204 
824 10 1  0.433 34.066 47.095 
825 10 1 -1.371 35.888 47.162 
826 10 1 -3.016 37.722  3.176 
827 10 1 -4.545 39.405  2.935 
828 10 1 51.651 40.987 46.996 
829 10 1 49.768 41.971  1.676 
830 10 1 47.998 42.868 44.711 
831 11 1 32.189 13.947 42.275 
832 11 1 29.989 13.510 43.255 
833 11 1 28.167 13.287 44.528 
834 11 1 26.282 13.213 45.959 
835 11 1 24.154 13.284  2.141 
836 11 1 21.531 13.853  2.327 
837 11 1 20.171 12.713 45.342 
838 11 1 18.414 10.861 45.887 
839 11 1 16.984  9.790 47.281 
840 11 1 15.727  9.439  4.825 
841 11 1 16.170  7.661  6.767 
842 11 1 15.897  5.658  7.809 
843 11 1 15.096  3.224  7.803 
844 11 1 15.198 45.590  7.273 
845 11 1 16.627 43.810  7.055 
846 11 1 18.785 42.471  7.442 
847 11 1 20.193 40.970  6.301 
848 11 1 20.894 39.230  4.540 
849 11 1 21.715 39.101  2.013 
850 11 1 22.187 37.154 45.127 
851 11 1 22.362 35.238 43.384 
852 11 1 21.316 35.208 41.009 
853 11 1 22.541 34.440 38.861 
854 11 1 23.621 33.603 36.677 
855 11 1 24.563 32.554 34.543 
856 11 1 25.692 30.975 33.191 
857 11 1 25.183 28.424 32.861 
858 11 1 25.394 26.238 34.273 
859 11 1 25.215 23.891 33.211 
860 11 1 27.022 22.135 33.505 
861 11 1 27.402 20.780 35.670 
862 11 1 27.237 19.575 37.861 
863 11 1 27.087 17.046 38.290 
864 11 1 27.206 14.544 38.783 
865 11 1 27.608 12.126 39.327 
866 11 1 27.775  9.724 40.064 
867 11 1 27.614  7.257 40.863 
868 11 1 27.860  4.850 41.727 
869 11 1 28.405  2.575 42.814 
870 11 1 29.718 45.608 43.433 
871 11 1 31.756 44.443 44.491 
872 11 1 33.445 42.825 44.651 
873 11 1 34.501 42.068 42.358 
874 11 1 35.940 42.397 40.613 
875 11 1 37.942 43.501 39.399 
876 11 1 39.214 45.787 39.510 
877 11 1 40.053  3.370 39.758 
878 11 1 41.112  4.415 41.905 
879 11 1 41.208  4.434 44.174 
880 11 1 40.202  3.924 46.527 
881 11 1 38.866  3.431  3.983 
882 11 1 36.890  1.700  4.257 
883 11 1 34.890 45.043  4.729 
884 11 1 32.723 44.230  4.688 
885 11 1 30.211 44.496  4.127 
886 11 1 27.702 44.695  3.522 
887 11 1 25.719 43.853  2.780 
888 11 1 24.403 42.360 45.958 
889 11 1 23.730 43.135 43.844 
890 11 1 21.820 41.781 42.976 
891 11 1 22.360 40.982 40.586 
892 11 1 24.338 39.458 39.814 
893 11 1 25.285 40.239 37.851 
894 11 1 26.465 42.044 36.344 
895 11 1 27.670 43.392 34.617 
896 11 1 28.849 44.755 32.711 
897 11 1 30.495 46.638 33.384 
898 11 1 31.888  3.893 34.004 
899 11 1 33.986  4.822 35.043 
900 11 1 36.288  5.514 36.032 
901 11 1 37.909  7.509 35.432 
902 11 1 38.692  9.531 34.475 
903 11 1 39.369 11.721 34.125 
904 11 1 40.458 13.552 33.468 
905 11 1 41.386 15.240 31.762 
906 11 1 42.206 17.006 30.126 
907 11 1 43.015 18.959 28.664 
908 11 1 44.159 20.813 27.304 
909 12 1  7.912 30.420 14.331 
910 12 1  9.207 29.480 16.437 
911 12 1 10.643 28.764 18.428 
912 12 1 12.066 28.026 20.392 
913 12 1 13.774 27.539 22.271 
914 12 1 13.984 25.581 23.886 
915 12 1 15.841 24.117 24.337 
916 12 1 17.505 22.801 25.037 
917 12 1 19.245 22.013 26.637 
918 12 1 20.718 20.415 27.548 
919 12 1 22.115 18.311 27.472 
920 12 1 22.115 16.359 25.699 
921 12 1 22.477 14.364 24.045 
922 12 1 22.358 12.190 22.549 
923 12 1 24.578 11.177 22.312 
924 12 1 25.857 13.177 21.272 
925 12 1 26.229 15.442 21.463 
926 12 1 26.435 17.856 22.571 
927 12 1 24.547 19.354 23.279 
928 12 1 23.201 21.513 23.814 
929 12 1 22.131 23.789 24.018 
930 12 1 21.311 26.194 24.437 
931 12 1 19.420 27.371 25.649 
932 12 1 17.330 28.493 26.630 
933 12 1 15.416 29.804 26.683 
934 12 1 13.923 31.652 25.838 
935 12 1 12.728 32.769 24.020 
936 12 1 11.901 33.155 21.622 
937 12 1 13.451 32.926 19.493 
938 12 1 12.692 32.759 16.999 
939 12 1 12.084 32.413 14.490 
940 12 1 12.499 30.532 12.960 
941 12 1 12.830 28.507 11.424 
942 12 1 12.770 28.218  8.901 
943 12 1 12.753 27.751  6.313 
944 12 1 12.577 27.086  3.830 
945 12 1 12.482 26.066 46.080 
946 12 1 12.295 24.579 43.885 
947 12 1 12.207 23.076 41.723 
948 12 1 11.807 21.826 39.527 
949 12 1 11.886 20.609 37.167 
950 12 1 11.200 20.096 35.038 
951 12 1  9.528 20.092 33.104 
952 12 1  7.662 19.447 31.370 
953 12 1  6.070 18.442 29.625 
954 12 1  5.723 16.442 30.634 
955 12 1  6.242 14.268 31.926 
956 12 1  6.924 12.248 33.420 
957 12 1  7.797 11.409 35.428 
958 12 1  8.229 11.676 37.857 
959 12 1  9.201 11.868 40.316 
960 12 1 10.094 12.570 42.733 
961 12 1 10.206 14.495 44.474 
962 12 1  9.136 15.670 46.222 
963 12 1  7.330 17.009  2.777 
964 12 1  5.356 18.324  3.905 
965 12 1  3.368 19.580  5.198 
966 12 1  1.540 20.467  6.764 
967 12 1  0.320 21.656  8.492 
968 12 1  0.415 22.320 10.648 
969 12 1  1.241 22.287 12.972 
970 12 1  2.387 22.412 15.362 
971 12 1  3.142 21.813 17.798 
972 12 1  4.256 21.507 20.038 
973 12 1  5.687 21.208 22.142 
974 12 1  7.101 20.650 24.254 
975 12 1  8.692 20.258 26.262 
976 12 1 10.501 20.601 28.168 
977 12 1 11.729 22.170 29.254 
978 12 1 13.568 22.830 27.906 
979 12 1 15.600 23.419 29.453 
980 12 1 17.827 23.815 30.783 
981 12 1 19.197 22.140 32.308 
982 12 1 21.432 20.786 32.169 
983 12 1 22.920 18.744 32.270 
984 12 1 24.646 16.763 32.361 
985 12 1 26.565 15.120 32.168 
986 12 1 28.516 14.605 33.842 