LAMMPS data file generated by aa2cg.

2000 atoms
1 atom types
1975 bonds
1 bond types
1950 angles
1 angle types
1925 dihedrals
1 dihedral types

 0.000 70.821 xlo xhi
 0.000 37.140 ylo yhi
 0.000 44.091 zlo zhi

Masses

1 24.022

Atoms # molecular

1 1 1 51.334 19.961  2.672 
2 1 1 23.042  7.838 46.963 
3 2 1 -9.795 19.852  6.198 
4 2 1 38.565  8.947 34.277 
5 3 1 39.702 13.222 33.580 
6 3 1 44.941 33.046 27.115 
7 4 1  5.094 24.679 45.738 
8 4 1 53.778 19.143 25.439 
9 5 1  3.752  6.996 14.730 
10 5 1 17.716 20.488 46.285 
11 6 1 15.522  8.724 44.162 
12 6 1 54.225  9.040 37.075 
13 7 1 17.439 11.434 39.647 
14 7 1 -8.599  6.967 39.575 
15 8 1 44.867 24.413 30.075 
16 8 1 15.726 40.468 33.024 
17 9 1 43.169 39.843 42.419 
18 9 1  3.155 11.970  8.164 
19 10 1 -3.265 33.712 20.894 
20 10 1 -0.447 21.323 25.050 
21 11 1  5.758 23.658 17.269 
22 11 1 27.878 23.162 41.161 
23 12 1 31.200 40.624 17.612 
24 12 1 -7.611 13.157  8.310 
25 13 1 -3.401 27.189 12.557 
26 13 1 16.625 41.090 17.725 
27 14 1 25.780 17.415 13.565 
28 14 1 42.930  7.979 21.702 
29 15 1 39.926 31.124 45.753 
30 15 1 58.011  6.592 13.418 
31 16 1 42.800 38.435 35.175 
32 16 1 19.274 14.989 25.417 
33 17 1  6.464 35.540 40.487 
34 17 1 34.078  8.536 10.342 
35 18 1 21.963  8.347 42.936 
36 18 1 30.189 30.678  4.882 
37 19 1 38.663  8.445 28.755 
38 19 1 -4.155 42.153 39.432 
39 20 1 36.822 11.023 13.293 
40 20 1  1.402 21.741 33.923 
41 21 1 13.422 38.634 12.926 
42 21 1 -4.315 22.647 12.406 
43 22 1  5.053 34.463 36.231 
44 22 1 37.780 30.143 26.387 
45 23 1 -9.180 28.646 33.493 
46 23 1 20.862  7.360 29.707 
47 24 1 57.322 26.474 29.397 
48 24 1 42.403 11.349 30.272 
49 25 1 -7.126 25.699 15.395 
50 25 1 15.503 31.721  7.356 
51 1 1 53.548 19.045  2.718 
52 1 1 55.175 17.128  3.001 
53 1 1 56.912 15.261  3.123 
54 1 1 58.764 13.544  3.547 
55 1 1 -9.898 12.077  4.032 
56 1 1 -9.710  9.514  4.315 
57 1 1 -9.689  7.006  4.273 
58 1 1 -10.377 42.124  3.625 
59 1 1 58.982 40.747  2.090 
60 1 1 56.989 41.597 45.604 
61 1 1 54.534 42.310 46.016 
62 1 1 53.151 42.895  4.029 
63 1 1 52.424  6.724  6.075 
64 1 1 53.279  7.691  8.182 
65 1 1 54.468  8.332 10.447 
66 1 1 55.342  9.760 12.387 
67 1 1 56.147 11.184 14.406 
68 1 1 57.033 12.560 16.368 
69 1 1 58.269 13.924 18.131 
70 1 1 59.363 15.596 19.755 
71 1 1 60.155 17.054 21.624 
72 1 1 -9.975 18.943 23.215 
73 1 1 -9.405 21.088 24.658 
74 1 1 -8.918 23.140 25.998 
75 1 1 -9.471 24.989 27.397 
76 1 1 60.398 26.883 26.217 
77 1 1 60.539 29.122 24.910 
78 1 1 -9.878 30.946 23.126 
79 1 1 -8.372 32.652 23.635 
80 1 1 -7.313 34.642 24.062 
81 1 1 -6.229 36.718 24.284 
82 1 1 -7.216 39.045 24.713 
83 1 1 -5.972 40.851 26.127 
84 1 1 -4.796 42.718 27.265 
85 1 1 -5.181  6.996 29.442 
86 1 1 -5.117  7.358 31.797 
87 1 1 -5.664 42.832 33.613 
88 1 1 -6.361 41.542 35.669 
89 1 1 -7.597 39.869 36.755 
90 1 1 -9.238 37.938 37.139 
91 1 1 -11.003 36.120 37.569 
92 1 1 -10.926 33.622 36.990 
93 1 1 -10.845 31.054 36.790 
94 1 1 58.166 29.418 37.354 
95 1 1 57.378 27.429 35.886 
96 1 1 56.423 25.652 34.288 
97 1 1 55.533 24.009 32.660 
98 1 1 55.001 22.748 30.758 
99 1 1 55.037 22.606 28.292 
100 1 1 56.031 22.950 25.908 
101 1 1 56.824 23.193 23.535 
102 1 1 58.412 24.971 22.616 
103 1 1 60.340 26.561 21.533 
104 1 1 -8.206 27.319 20.665 
105 1 1 -5.724 28.055 20.348 
106 1 1 -3.319 28.869 20.378 
107 1 1 -0.804 29.363 20.251 
108 1 1  1.688 29.909 20.247 
109 1 1  4.165 30.663 20.343 
110 1 1  6.656 30.611 20.648 
111 1 1  7.928 32.633 20.389 
112 1 1  9.806 32.977 21.710 
113 1 1 12.260 32.264 22.251 
114 1 1 14.692 31.348 22.680 
115 1 1 16.940 31.620 23.134 
116 1 1 19.027 33.073 23.732 
117 1 1 21.191 34.485 24.175 
118 1 1 21.946 36.565 22.877 
119 1 1 23.466 38.362 23.849 
120 1 1 24.882 40.117 22.464 
121 1 1 23.595 41.568 21.218 
122 1 1 22.306 42.130 19.029 
123 1 1 21.087 42.917 16.886 
124 1 1 20.352  6.421 14.493 
125 1 1 19.723  6.826 12.009 
126 1 1 19.545  6.764  9.432 
127 1 1 20.481  7.021  7.212 
128 1 1 21.709  7.447  5.072 
129 2 1 58.648 20.287  5.270 
130 2 1 56.779 21.255  6.657 
131 2 1 54.451 22.280  6.163 
132 2 1 52.164 23.087  5.651 
133 2 1 50.532 23.915  4.264 
134 2 1 49.288 23.730  2.224 
135 2 1 47.963 22.782 44.358 
136 2 1 46.229 22.011 42.761 
137 2 1 44.674 21.243 40.914 
138 2 1 42.897 20.570 39.223 
139 2 1 40.807 19.870 37.749 
140 2 1 39.735 17.537 38.004 
141 2 1 38.278 15.392 38.489 
142 2 1 37.024 13.318 39.158 
143 2 1 36.922 11.498 40.379 
144 2 1 38.015  9.572 41.855 
145 2 1 38.163  7.373 42.569 
146 2 1 37.648 42.647 43.700 
147 2 1 36.859 41.506 45.883 
148 2 1 35.868 40.702  4.040 
149 2 1 34.761 40.141  6.350 
150 2 1 33.528 39.154  8.344 
151 2 1 32.344 40.348 10.283 
152 2 1 31.282 41.887 12.052 
153 2 1 30.397  6.527 13.679 
154 2 1 30.539  8.003 15.409 
155 2 1 31.880  9.696 16.450 
156 2 1 32.717 12.020 16.567 
157 2 1 33.757 13.589 14.914 
158 2 1 34.762 14.876 13.145 
159 2 1 34.589 15.267 10.869 
160 2 1 33.298 16.660  9.414 
161 2 1 31.520 18.285 10.311 
162 2 1 29.911 20.073 11.310 
163 2 1 28.494 21.997 12.264 
164 2 1 26.892 23.779 13.083 
165 2 1 27.256 26.316 13.557 
166 2 1 25.680 28.424 13.270 
167 2 1 24.111 30.468 13.179 
168 2 1 22.185 31.587 13.841 
169 2 1 22.280 32.340 16.347 
170 2 1 21.974 33.055 18.818 
171 2 1 21.824 31.482 20.565 
172 2 1 22.175 29.316 21.410 
173 2 1 21.609 26.827 21.369 
174 2 1 20.816 24.398 21.301 
175 2 1 19.541 22.599 22.055 
176 2 1 18.123 21.358 23.752 
177 2 1 17.608 19.481 25.194 
178 2 1 19.245 18.893 27.042 
179 2 1 20.693 18.342 29.172 
180 2 1 22.674 17.921 30.887 
181 2 1 22.803 15.932 32.499 
182 2 1 22.307 14.864 34.494 
183 2 1 21.973 13.676 36.473 
184 2 1 22.241 11.964 38.383 
185 2 1 24.373 11.489 39.790 
186 2 1 26.388 10.786 41.348 
187 2 1 27.871 11.175 43.096 
188 2 1 26.897 10.491 45.092 
189 2 1 27.917  9.821 47.178 
190 2 1 26.569  9.372  5.292 
191 2 1 25.289  9.274  7.547 
192 2 1 24.185  8.926  9.815 
193 2 1 23.888  7.583 11.695 
194 2 1 24.087 42.369 12.746 
195 2 1 26.224 40.938 12.592 
196 2 1 27.494 39.254 11.769 
197 2 1 27.981 37.505 10.095 
198 2 1 29.053 36.767  8.203 
199 2 1 29.968 37.301  5.826 
200 2 1 30.883 38.282  3.740 
201 2 1 31.935 39.488 45.889 
202 2 1 32.850 40.647 43.849 
203 2 1 33.715 41.937 41.666 
204 2 1 34.634 42.997 39.508 
205 2 1 35.632  6.947 37.507 
206 2 1 36.912  8.314 35.778 
207 3 1 40.857 12.221 35.752 
208 3 1 42.007 10.867 37.623 
209 3 1 42.946  9.582 39.613 
210 3 1 43.345  8.499 41.954 
211 3 1 42.935  7.513 44.287 
212 3 1 42.135  6.675 46.528 
213 3 1 41.363 42.776  4.653 
214 3 1 40.050 41.726  6.556 
215 3 1 38.412 40.385  8.143 
216 3 1 39.080 39.460 10.131 
217 3 1 40.742 38.465 11.686 
218 3 1 42.595 38.453 13.357 
219 3 1 44.249 37.779 15.085 
220 3 1 45.927 37.560 17.066 
221 3 1 48.018 37.100 18.251 
222 3 1 49.869 38.818 18.493 
223 3 1 51.584 40.654 19.145 
224 3 1 53.807 40.845 20.474 
225 3 1 55.207 40.693 22.305 
226 3 1 54.678 42.031 24.516 
227 3 1 54.937  6.356 26.358 
228 3 1 56.004  8.262 27.764 
229 3 1 57.583  8.213 29.748 
230 3 1 59.220  8.520 31.753 
231 3 1 -9.828  8.624 33.544 
232 3 1 -7.740  9.005 35.030 
233 3 1 -5.497  9.599 36.263 
234 3 1 -3.589  9.634 37.778 
235 3 1 -2.019  8.899 39.747 
236 3 1 -1.926  7.337 41.876 
237 3 1  0.094  6.268 42.947 
238 3 1  1.979 42.278 44.226 
239 3 1  4.074 40.946 44.783 
240 3 1  4.352 38.410 44.559 
241 3 1  5.036 35.901 44.681 
242 3 1  5.912 33.428 44.618 
243 3 1  7.019 32.724 46.524 
244 3 1  7.359 32.970  4.836 
245 3 1  5.789 34.869  5.604 
246 3 1  4.546 36.852  6.528 
247 3 1  3.838 39.066  6.667 
248 3 1  3.356 41.436  5.690 
249 3 1  2.729  6.592  4.724 
250 3 1  1.316  8.640  4.439 
251 3 1 -0.394  9.168  2.434 
252 3 1 -2.262  8.005  3.062 
253 3 1 -3.256  5.837  3.975 
254 3 1 -2.129 40.681  3.582 
255 3 1 -1.047 38.301  3.382 
256 3 1  0.001 35.997  3.554 
257 3 1  0.955 33.676  3.624 
258 3 1  2.070 31.314  3.541 
259 3 1  3.818 29.672  3.896 
260 3 1  6.005 29.011  4.940 
261 3 1  8.442 28.572  5.863 
262 3 1 10.974 28.572  6.358 
263 3 1 13.536 28.345  6.799 
264 3 1 15.700 27.684  6.115 
265 3 1 17.317 26.945  4.555 
266 3 1 18.560 25.550  2.874 
267 3 1 18.250 25.625 44.433 
268 3 1 18.534 26.087 42.207 
269 3 1 19.932 27.186 40.216 
270 3 1 20.919 27.634 37.874 
271 3 1 21.850 27.593 35.595 
272 3 1 24.341 27.106 35.000 
273 3 1 26.680 26.279 33.974 
274 3 1 28.819 25.098 33.012 
275 3 1 30.566 23.498 32.078 
276 3 1 32.074 21.614 31.173 
277 3 1 34.536 21.774 30.945 
278 3 1 37.072 21.561 31.184 
279 3 1 38.845 21.991 29.520 
280 3 1 40.248 23.122 27.958 
281 3 1 40.833 24.918 26.102 
282 3 1 41.721 27.291 26.729 
283 3 1 42.534 29.758 27.405 
284 3 1 43.161 32.089 28.295 
285 4 1  6.648 26.710 45.412 
286 4 1  8.259 28.591 44.764 
287 4 1  7.307 29.088 42.506 
288 4 1  5.622 29.916 40.731 
289 4 1  4.003 30.757 38.929 
290 4 1  2.516 30.731 37.104 
291 4 1  1.197 29.419 35.463 
292 4 1  0.229 27.699 33.808 
293 4 1  0.032 26.141 32.136 
294 4 1  0.919 24.825 30.090 
295 4 1  2.084 23.630 28.025 
296 4 1  3.263 22.804 25.948 
297 4 1  4.238 21.774 23.767 
298 4 1  5.193 20.342 21.855 
299 4 1  6.159 18.823 20.029 
300 4 1  7.406 16.856 18.942 
301 4 1  8.461 14.933 17.691 
302 4 1  9.614 13.238 16.375 
303 4 1 10.997 11.416 15.282 
304 4 1 12.243  9.248 14.620 
305 4 1 13.127  6.854 14.369 
306 4 1 15.229  6.817 13.595 
307 4 1 15.025  6.978 10.978 
308 4 1 13.597  8.701  9.771 
309 4 1 12.180 10.343  8.481 
310 4 1 10.990 12.264  7.343 
311 4 1 12.282 14.323  7.439 
312 4 1 14.284 15.944  7.661 
313 4 1 15.893 17.111  8.754 
314 4 1 17.621 18.154  9.692 
315 4 1 19.816 18.309 10.333 
316 4 1 21.409 16.426 10.080 
317 4 1 23.377 14.868  9.877 
318 4 1 24.293 13.169 11.588 
319 4 1 24.679 11.670 13.560 
320 4 1 25.342  9.850 15.318 
321 4 1 25.942  7.443 16.105 
322 4 1 26.422 42.287 16.932 
323 4 1 26.713 39.880 17.566 
324 4 1 27.045 37.544 18.438 
325 4 1 26.356 35.636 19.491 
326 4 1 25.498 34.264 21.120 
327 4 1 25.654 32.619 22.802 
328 4 1 26.097 30.188 23.477 
329 4 1 27.997 28.726 22.454 
330 4 1 29.937 28.514 21.196 
331 4 1 31.996 29.249 19.777 
332 4 1 33.803 30.238 18.193 
333 4 1 35.726 31.246 16.837 
334 4 1 37.433 32.463 15.468 
335 4 1 37.845 33.891 13.640 
336 4 1 37.171 34.980 11.400 
337 4 1 34.696 34.939 10.505 
338 4 1 32.349 34.301 10.371 
339 4 1 30.152 32.973 10.743 
340 4 1 27.809 32.425 10.360 
341 4 1 25.634 32.374  9.101 
342 4 1 26.005 33.352  7.053 
343 4 1 27.402 33.839  4.924 
344 4 1 28.707 34.101  2.750 
345 4 1 30.363 34.462 44.783 
346 4 1 31.675 35.095 42.621 
347 4 1 33.002 36.048 40.598 
348 4 1 34.316 37.171 38.665 
349 4 1 35.650 38.436 36.843 
350 4 1 37.165 39.750 35.223 
351 4 1 38.814 40.668 33.446 
352 4 1 40.397 41.675 31.567 
353 4 1 41.683 42.716 29.729 
354 4 1 42.950  6.675 27.831 
355 4 1 44.263  7.993 26.198 
356 4 1 45.633  9.252 24.560 
357 4 1 47.173 10.490 23.062 
358 4 1 48.665 11.376 21.186 
359 4 1 49.487 13.030 19.774 
360 4 1 50.723 15.059 20.777 
361 4 1 51.934 17.207 21.390 
362 4 1 52.869 18.573 23.073 
363 5 1  4.038 41.747 15.374 
364 5 1  4.216 39.253 15.981 
365 5 1  4.300 36.682 16.313 
366 5 1  4.148 34.659 17.368 
367 5 1  3.075 34.632 19.745 
368 5 1  2.276 34.668 22.171 
369 5 1  1.118 33.522 23.745 
370 5 1 -0.680 31.740 24.372 
371 5 1 -2.876 30.642 24.886 
372 5 1 -5.256 29.837 25.270 
373 5 1 -5.300 27.524 25.381 
374 5 1 -3.991 25.726 24.961 
375 5 1 -2.246 24.400 23.651 
376 5 1  0.101 25.030 22.824 
377 5 1  2.474 25.313 22.113 
378 5 1  4.418 26.464 22.048 
379 5 1  5.728 26.053 24.176 
380 5 1  7.211 25.340 26.142 
381 5 1  9.390 24.705 27.075 
382 5 1 11.304 23.318 27.231 
383 5 1 11.584 21.399 28.446 
384 5 1 11.482 19.898 30.565 
385 5 1  9.860 18.270 31.576 
386 5 1  8.281 16.624 31.381 
387 5 1  7.268 14.662 30.148 
388 5 1  6.266 12.721 28.896 
389 5 1  5.206 10.713 27.768 
390 5 1  4.123  8.599 26.791 
391 5 1  3.344  6.237 26.000 
392 5 1  2.698 40.885 25.592 
393 5 1  2.979 39.525 23.426 
394 5 1  2.449 38.947 21.159 
395 5 1  1.339 39.008 18.739 
396 5 1 -0.292 40.729 17.802 
397 5 1 -1.578 42.515 16.843 
398 5 1 -2.890  7.686 16.736 
399 5 1 -4.009  9.987 17.213 
400 5 1 -3.773 12.277 17.499 
401 5 1 -2.652 14.575 17.698 
402 5 1 -0.392 15.718 16.943 
403 5 1  1.766 16.857 16.079 
404 5 1  4.231 17.571 15.773 
405 5 1  6.374 17.499 14.904 
406 5 1  8.314 16.551 13.559 
407 5 1 10.418 15.608 12.372 
408 5 1 12.711 14.730 11.836 
409 5 1 15.134 13.860 11.494 
410 5 1 16.130 11.817 10.304 
411 5 1 18.594 11.630  9.369 
412 5 1 20.827 11.535  8.215 
413 5 1 22.382 12.274  6.592 
414 5 1 23.548 14.016  5.071 
415 5 1 25.370 14.907  3.771 
416 5 1 27.804 14.951  2.964 
417 5 1 30.218 14.956  2.353 
418 5 1 32.483 15.581 46.011 
419 5 1 34.558 17.176 46.529 
420 5 1 34.311 18.012  4.790 
421 5 1 31.985 19.015  5.408 
422 5 1 29.760 19.981  6.082 
423 5 1 28.435 21.787  6.758 
424 5 1 28.088 24.283  7.108 
425 5 1 26.806 26.134  7.866 
426 5 1 24.654 27.094  8.935 
427 5 1 22.577 28.074 10.027 
428 5 1 20.442 29.161 11.094 
429 5 1 18.437 30.319 12.175 
430 5 1 16.544 29.220 13.500 
431 5 1 15.421 27.439 14.446 
432 5 1 15.081 24.964 14.976 
433 5 1 14.266 22.829 14.394 
434 5 1 13.279 21.022 12.883 
435 5 1 12.717 19.172 11.111 
436 5 1 11.005 18.959  9.132 
437 5 1 11.436 18.634  6.566 
438 5 1 11.832 18.528  4.015 
439 5 1 13.782 17.422  3.467 
440 5 1 15.755 19.053  2.846 
441 6 1 17.143 10.194 44.968 
442 6 1 19.463 11.355 44.573 
443 6 1 21.499 12.793 44.117 
444 6 1 23.523 14.286 43.783 
445 6 1 25.653 15.759 43.608 
446 6 1 27.649 15.681 42.085 
447 6 1 29.966 15.673 40.908 
448 6 1 32.124 15.792 39.522 
449 6 1 33.282 15.117 37.668 
450 6 1 34.077 13.807 35.586 
451 6 1 34.868 12.348 33.535 
452 6 1 33.881 11.747 31.226 
453 6 1 33.086 11.277 28.909 
454 6 1 33.175 11.632 26.521 
455 6 1 33.595 12.656 24.178 
456 6 1 35.575 14.118 23.494 
457 6 1 37.441 15.631 22.554 
458 6 1 39.267 16.954 21.392 
459 6 1 41.515 17.708 20.587 
460 6 1 43.665 16.730 21.757 
461 6 1 45.776 15.641 22.785 
462 6 1 47.814 14.612 23.936 
463 6 1 50.012 13.770 25.059 
464 6 1 51.552 15.074 26.579 
465 6 1 52.782 16.271 28.515 
466 6 1 53.838 17.843 30.189 
467 6 1 54.080 18.889 32.251 
468 6 1 53.285 19.621 34.579 
469 6 1 52.724 20.993 36.418 
470 6 1 52.870 23.283 37.533 
471 6 1 52.946 25.727 38.248 
472 6 1 53.445 28.134 39.073 
473 6 1 54.154 30.537 39.882 
474 6 1 55.085 32.852 40.547 
475 6 1 55.620 35.308 41.083 
476 6 1 56.350 37.613 41.939 
477 6 1 57.318 39.518 40.516 
478 6 1 58.181 40.987 38.692 
479 6 1 58.882 42.712 36.906 
480 6 1 57.176  5.784 35.310 
481 6 1 55.100 41.770 34.157 
482 6 1 52.968 41.034 32.887 
483 6 1 51.871 40.822 30.805 
484 6 1 51.712 40.317 28.311 
485 6 1 51.500 39.282 25.988 
486 6 1 51.567 38.085 23.744 
487 6 1 50.570 36.855 22.099 
488 6 1 49.129 34.871 22.744 
489 6 1 47.531 32.917 22.996 
490 6 1 46.381 30.603 22.961 
491 6 1 45.097 28.382 23.065 
492 6 1 43.813 26.218 23.142 
493 6 1 42.948 24.630 21.321 
494 6 1 41.707 23.388 19.506 
495 6 1 40.177 21.961 17.970 
496 6 1 37.751 21.306 18.656 
497 6 1 35.414 20.498 19.480 
498 6 1 35.042 18.973 21.524 
499 6 1 32.630 18.218 22.232 
500 6 1 30.271 18.362 22.629 
501 6 1 28.286 18.885 21.612 
502 6 1 29.271 19.317 19.326 
503 6 1 31.002 19.586 17.537 
504 6 1 32.803 19.988 15.804 
505 6 1 34.199 20.801 13.745 
506 6 1 36.201 19.566 12.579 
507 6 1 38.061 18.323 11.466 
508 6 1 39.746 16.793 10.438 
509 6 1 41.392 15.077  9.528 
510 6 1 43.514 14.403  8.989 
511 6 1 45.770 14.883  8.116 
512 6 1 47.805 15.483  6.690 
513 6 1 49.822 15.945  5.213 
514 6 1 50.544 15.462  2.810 
515 6 1 51.251 14.666 44.550 
516 6 1 51.485 13.671 42.260 
517 6 1 51.715 12.271 40.255 
518 6 1 52.787 10.525 38.739 
519 7 1 14.990 11.035 40.519 
520 7 1 13.251 12.641 41.334 
521 7 1 11.335 14.240 41.751 
522 7 1  9.417 15.862 42.352 
523 7 1  8.346 16.335 44.707 
524 7 1  7.411 16.436  3.043 
525 7 1  7.037 16.030  5.568 
526 7 1  7.176 15.568  8.095 
527 7 1  7.349 13.446  9.549 
528 7 1  7.241 11.390 11.137 
529 7 1  8.016  9.308 11.938 
530 7 1  8.580  7.209 12.438 
531 7 1  8.582 42.035 13.519 
532 7 1  8.469 39.481 14.111 
533 7 1  8.637 37.010 14.066 
534 7 1  9.667 35.091 13.446 
535 7 1 11.731 33.713 12.843 
536 7 1 12.776 31.815 12.215 
537 7 1 13.057 29.630 10.831 
538 7 1 11.746 27.699 11.461 
539 7 1 10.732 26.413 13.487 
540 7 1 10.334 24.023 14.123 
541 7 1  9.457 21.773 14.987 
542 7 1 10.370 21.071 17.018 
543 7 1 11.516 18.743 17.052 
544 7 1 13.015 16.596 16.748 
545 7 1 15.080 16.714 15.629 
546 7 1 16.943 17.456 14.637 
547 7 1 18.823 19.366 14.297 
548 7 1 19.206 21.733 15.241 
549 7 1 19.719 24.185 15.940 
550 7 1 20.191 26.677 16.495 
551 7 1 19.233 28.662 17.115 
552 7 1 17.884 28.524 19.343 
553 7 1 15.297 27.967 19.215 
554 7 1 12.879 27.154 18.661 
555 7 1 10.714 25.840 17.986 
556 7 1  9.227 25.563 19.653 
557 7 1  9.195 25.789 22.038 
558 7 1 10.525 27.802 22.854 
559 7 1 10.762 29.068 25.103 
560 7 1 11.297 29.977 27.577 
561 7 1 13.730 30.413 28.324 
562 7 1 16.147 30.976 28.458 
563 7 1 18.621 31.723 28.413 
564 7 1 21.218 32.478 28.351 
565 7 1 23.721 33.135 28.262 
566 7 1 25.971 32.792 28.166 
567 7 1 28.110 31.817 27.172 
568 7 1 30.219 30.774 26.175 
569 7 1 32.437 29.856 25.192 
570 7 1 34.522 28.539 24.648 
571 7 1 34.854 26.143 24.627 
572 7 1 35.249 23.895 25.679 
573 7 1 35.707 21.371 26.003 
574 7 1 36.100 18.896 26.431 
575 7 1 38.393 17.828 26.806 
576 7 1 40.852 16.986 26.836 
577 7 1 41.717 14.587 26.473 
578 7 1 44.084 13.822 27.036 
579 7 1 46.230 12.971 28.201 
580 7 1 47.918 13.213 29.745 
581 7 1 49.639 13.671 31.406 
582 7 1 50.918 13.220 33.522 
583 7 1 52.696 13.497 35.099 
584 7 1 54.699 14.997 36.096 
585 7 1 55.852 16.972 37.257 
586 7 1 56.259 19.183 38.449 
587 7 1 56.202 21.642 39.339 
588 7 1 56.483 23.977 40.222 
589 7 1 57.046 26.257 41.251 
590 7 1 57.576 28.489 42.382 
591 7 1 58.918 30.499 41.382 
592 7 1 -10.550 32.646 40.818 
593 7 1 -10.405 34.972 41.948 
594 7 1 -9.685 37.239 42.989 
595 7 1 -9.434 39.634 41.927 
596 7 1 -8.989 41.905 40.895 
597 8 1 46.633 26.388 30.308 
598 8 1 48.127 28.398 30.821 
599 8 1 49.264 30.487 31.729 
600 8 1 49.389 32.556 32.968 
601 8 1 47.069 33.519 33.476 
602 8 1 44.739 34.016 33.109 
603 8 1 43.305 35.014 31.758 
604 8 1 42.948 36.517 29.690 
605 8 1 42.879 38.091 27.618 
606 8 1 44.871 39.417 26.798 
607 8 1 46.700 40.999 25.697 
608 8 1 48.513 42.538 24.566 
609 8 1 50.185  6.624 23.067 
610 8 1 52.060  8.017 22.931 
611 8 1 52.436 10.311 23.833 
612 8 1 51.927 10.294 26.090 
613 8 1 50.425 10.129 28.131 
614 8 1 48.694  8.282 28.747 
615 8 1 47.515  6.296 29.672 
616 8 1 47.031 41.149 30.835 
617 8 1 47.377 38.823 30.588 
618 8 1 48.438 36.906 29.272 
619 8 1 49.769 35.194 28.004 
620 8 1 50.507 33.143 27.157 
621 8 1 49.986 30.925 26.872 
622 8 1 48.923 28.619 26.457 
623 8 1 47.853 26.266 26.013 
624 8 1 46.741 23.984 25.700 
625 8 1 45.555 21.732 25.421 
626 8 1 43.135 21.165 24.766 
627 8 1 40.715 21.078 23.986 
628 8 1 38.894 22.101 23.106 
629 8 1 38.053 24.303 22.079 
630 8 1 37.265 26.465 20.966 
631 8 1 38.489 28.683 21.183 
632 8 1 39.795 30.898 21.287 
633 8 1 41.428 32.253 22.242 
634 8 1 43.067 33.731 22.900 
635 8 1 44.465 35.885 22.592 
636 8 1 46.107 37.907 22.527 
637 8 1 46.377 40.092 21.144 
638 8 1 46.671 42.376 20.031 
639 8 1 47.210  7.321 18.468 
640 8 1 47.749  9.256 16.939 
641 8 1 48.370 11.005 15.275 
642 8 1 50.484 12.258 15.489 
643 8 1 51.994 14.142 16.462 
644 8 1 53.678 15.918 17.301 
645 8 1 55.106 17.926 18.046 
646 8 1 56.420 19.589 19.398 
647 8 1 58.246 20.927 19.978 
648 8 1 60.542 22.103 19.922 
649 8 1 -8.023 23.272 19.788 
650 8 1 -5.585 23.699 19.291 
651 8 1 -3.215 24.487 18.783 
652 8 1 -0.903 25.355 18.125 
653 8 1  1.362 26.350 17.377 
654 8 1  1.826 28.302 15.707 
655 8 1  2.572 30.384 14.372 
656 8 1  3.125 32.383 12.920 
657 8 1  3.523 34.701 11.848 
658 8 1  5.448 36.408 11.104 
659 8 1  7.235 37.901 10.263 
660 8 1  9.112 39.593  9.576 
661 8 1 11.086 41.200  9.053 
662 8 1 13.181 41.510  8.277 
663 8 1 15.554 40.802  7.476 
664 8 1 17.853 40.041  6.645 
665 8 1 19.754 39.900  5.230 
666 8 1 20.881 40.384  2.977 
667 8 1 22.331 40.716 44.982 
668 8 1 23.520 41.442 42.911 
669 8 1 24.750 42.507 40.906 
670 8 1 23.930  6.378 38.692 
671 8 1 22.525  7.804 37.451 
672 8 1 20.183  7.222 36.579 
673 8 1 18.012  6.617 35.464 
674 8 1 16.442 42.175 34.538 
675 9 1 43.551 39.320 44.719 
676 9 1 45.175 38.990 46.789 
677 9 1 46.740 39.098  4.788 
678 9 1 47.992 39.220  7.001 
679 9 1 48.124 38.501  9.233 
680 9 1 47.368 37.226 11.417 
681 9 1 46.641 34.709 11.603 
682 9 1 44.193 33.844 11.139 
683 9 1 41.954 33.638 10.282 
684 9 1 40.026 34.516  8.867 
685 9 1 38.255 35.416  7.210 
686 9 1 39.074 36.816  5.312 
687 9 1 40.126 37.344  2.979 
688 9 1 41.299 35.816 45.273 
689 9 1 42.390 35.155 43.030 
690 9 1 43.265 35.208 40.581 
691 9 1 44.427 35.946 38.593 
692 9 1 46.299 37.369 37.292 
693 9 1 48.106 37.838 35.802 
694 9 1 50.023 37.259 34.141 
695 9 1 51.880 36.347 32.548 
696 9 1 53.707 35.562 31.007 
697 9 1 54.236 33.165 30.512 
698 9 1 54.197 30.879 30.204 
699 9 1 52.969 28.721 29.569 
700 9 1 52.172 26.423 28.890 
701 9 1 51.266 24.087 28.221 
702 9 1 50.291 21.822 27.547 
703 9 1 49.357 19.577 27.186 
704 9 1 47.868 17.638 27.359 
705 9 1 45.707 18.549 28.196 
706 9 1 43.442 19.140 29.316 
707 9 1 41.433 18.695 30.819 
708 9 1 39.909 17.996 32.697 
709 9 1 37.973 17.820 33.924 
710 9 1 35.716 18.679 34.579 
711 9 1 33.477 19.425 35.431 
712 9 1 31.069 18.485 34.965 
713 9 1 28.967 19.990 34.680 
714 9 1 27.173 21.463 35.214 
715 9 1 26.017 22.945 36.841 
716 9 1 24.287 24.195 38.357 
717 9 1 22.014 23.269 39.012 
718 9 1 19.698 22.357 39.769 
719 9 1 17.375 21.993 39.607 
720 9 1 15.102 22.582 38.468 
721 9 1 13.010 23.086 37.210 
722 9 1 10.928 23.395 35.803 
723 9 1  9.350 22.695 34.275 
724 9 1  7.594 21.615 35.435 
725 9 1  5.339 21.505 36.726 
726 9 1  4.010 21.185 38.541 
727 9 1  3.575 20.735 41.085 
728 9 1  3.252 20.021 43.551 
729 9 1  3.315 19.028 45.948 
730 9 1  3.357 18.012  4.259 
731 9 1  3.076 17.064  6.716 
732 9 1  2.555 16.666  9.243 
733 9 1  1.769 15.622 11.051 
734 9 1  0.948 13.639 12.283 
735 9 1  0.539 11.421 13.529 
736 9 1  0.651 10.141 15.511 
737 9 1  1.225  9.764 18.042 
738 9 1 -0.467 10.202 20.021 
739 9 1 -0.051 11.166 22.408 
740 9 1  0.410 12.133 24.826 
741 9 1  1.189 13.252 27.030 
742 9 1  2.031 14.253 29.238 
743 9 1  2.834 14.912 31.635 
744 9 1  3.795 15.699 33.883 
745 9 1  5.093 16.452 35.871 
746 9 1  6.287 17.045 37.971 
747 9 1  5.087 16.376 40.194 
748 9 1  3.265 15.680 41.990 
749 9 1  3.613 14.762 44.452 
750 9 1  1.615 13.680 45.871 
751 9 1  1.309 13.010  4.289 
752 9 1  2.003 12.736  6.430 
753 10 1 -5.697 33.087 20.073 
754 10 1 -7.944 32.218 19.188 
755 10 1 -9.834 30.923 18.060 
756 10 1 59.072 29.508 17.179 
757 10 1 58.330 27.880 15.666 
758 10 1 58.288 27.849 13.062 
759 10 1 59.258 28.272 10.613 
760 10 1 60.061 28.804  8.203 
761 10 1 -10.347 29.411  5.723 
762 10 1 -8.140 28.918  4.903 
763 10 1 -6.021 28.074  5.625 
764 10 1 -4.330 26.510  6.885 
765 10 1 -2.611 25.241  8.245 
766 10 1 -0.703 24.922  9.489 
767 10 1  1.513 25.502 10.654 
768 10 1  3.713 25.920 11.924 
769 10 1  5.850 25.923 13.280 
770 10 1  6.650 28.073 14.497 
771 10 1  7.134 30.205 15.817 
772 10 1  9.409 31.415 15.778 
773 10 1 11.538 30.643 17.120 
774 10 1 13.835 31.826 16.999 
775 10 1 15.831 33.395 16.700 
776 10 1 17.513 34.338 15.412 
777 10 1 18.865 34.869 13.242 
778 10 1 17.434 34.919 11.366 
779 10 1 15.323 35.598 10.130 
780 10 1 13.235 35.867  8.749 
781 10 1 11.170 34.926  8.315 
782 10 1  8.981 33.576  8.878 
783 10 1  8.839 31.534 10.493 
784 10 1  6.956 30.112 10.591 
785 10 1  4.828 29.769  9.707 
786 10 1  2.480 30.199  8.866 
787 10 1  0.151 30.693  7.897 
788 10 1 -2.320 31.073  7.371 
789 10 1 -3.498 33.027  6.348 
790 10 1 -4.956 34.347  4.817 
791 10 1 -5.412 34.656  2.322 
792 10 1 -5.924 35.063 43.912 
793 10 1 -6.163 35.185 41.326 
794 10 1 -5.617 35.949 39.334 
795 10 1 -4.186 37.059 37.659 
796 10 1 -2.903 38.271 35.863 
797 10 1 -1.822 40.185 35.102 
798 10 1 -1.193 42.586 34.910 
799 10 1 -0.542  7.988 35.105 
800 10 1  0.471 10.208 35.939 
801 10 1  1.930 12.175 36.812 
802 10 1  0.980 14.081 38.359 
803 10 1  0.636 16.308 37.681 
804 10 1 -0.657 17.888 36.555 
805 10 1 -2.823 18.861 35.732 
806 10 1 -5.198 18.888 36.752 
807 10 1 -7.785 18.954 37.446 
808 10 1 -9.642 18.743 38.877 
809 10 1 -10.580 16.422 39.118 
810 10 1 58.964 14.215 39.532 
811 10 1 56.952 12.922 39.714 
812 10 1 56.295 13.564 41.805 
813 10 1 55.560 11.674 43.311 
814 10 1 55.183 11.310 45.876 
815 10 1 56.280  9.174  3.071 
816 10 1 56.754  8.332  5.499 
817 10 1 57.934  8.133  7.471 
818 10 1 59.971  8.133  8.981 
819 10 1 -9.044  8.062 10.844 
820 10 1 -8.447  8.566 13.062 
821 10 1 -8.543  9.513 15.452 
822 10 1 -8.837 10.390 17.913 
823 10 1 -9.003 11.522 20.226 
824 10 1 -9.562 12.495 22.493 
825 10 1 -9.722 13.518 24.801 
826 10 1 -9.115 14.697 27.006 
827 10 1 -7.737 16.841 27.296 
828 10 1 -6.630 19.219 27.262 
829 10 1 -4.829 20.461 26.772 
830 10 1 -2.330 20.642 26.220 
831 11 1  3.625 22.614 18.177 
832 11 1  1.526 21.742 19.391 
833 11 1 -0.635 20.936 20.370 
834 11 1 -2.780 20.114 21.363 
835 11 1 -4.905 18.916 22.195 
836 11 1 -5.434 16.355 21.921 
837 11 1 -5.147 13.876 22.178 
838 11 1 -4.961 11.390 22.788 
839 11 1 -4.837  9.152 22.370 
840 11 1 -5.445  7.360 20.641 
841 11 1 -6.220 42.889 18.807 
842 11 1 -6.714 41.508 16.690 
843 11 1 -6.887 40.529 14.301 
844 11 1 -8.760 40.911 12.578 
845 11 1 -10.518 40.707 10.767 
846 11 1 58.979 40.428  8.503 
847 11 1 57.101 40.036  7.197 
848 11 1 54.520 39.799  7.185 
849 11 1 53.843 39.958  9.348 
850 11 1 53.769 40.021 11.628 
851 11 1 54.430 39.305 14.103 
852 11 1 54.831 38.786 16.598 
853 11 1 54.013 36.471 17.681 
854 11 1 53.210 34.049 18.153 
855 11 1 51.451 32.579 18.669 
856 11 1 49.056 31.858 18.499 
857 11 1 46.660 30.738 18.438 
858 11 1 44.489 29.471 18.374 
859 11 1 42.250 28.397 18.003 
860 11 1 39.970 27.343 17.433 
861 11 1 37.708 26.666 16.650 
862 11 1 35.671 25.417 16.291 
863 11 1 34.307 24.854 18.470 
864 11 1 32.977 24.252 20.664 
865 11 1 31.729 23.487 22.721 
866 11 1 30.651 22.617 24.892 
867 11 1 31.155 20.429 26.152 
868 11 1 30.981 18.098 26.999 
869 11 1 30.797 15.588 27.509 
870 11 1 29.125 14.249 26.283 
871 11 1 28.226 13.050 24.307 
872 11 1 29.267 13.116 22.053 
873 11 1 30.740 13.911 20.388 
874 11 1 32.823 15.206 19.431 
875 11 1 34.777 16.239 18.250 
876 11 1 36.742 16.906 16.864 
877 11 1 38.757 17.434 15.394 
878 11 1 41.196 17.597 16.075 
879 11 1 43.335 16.307 15.535 
880 11 1 44.204 15.539 13.264 
881 11 1 46.626 14.934 12.565 
882 11 1 48.864 15.420 12.393 
883 11 1 50.763 17.103 12.951 
884 11 1 52.582 18.725 13.818 
885 11 1 54.150 20.544 14.613 
886 11 1 55.737 22.437 15.133 
887 11 1 56.596 23.555 13.430 
888 11 1 57.683 23.027 11.012 
889 11 1 60.182 23.075 10.271 
890 11 1 -8.308 23.287  9.214 
891 11 1 -8.896 24.120  7.129 
892 11 1 -10.153 24.525  4.935 
893 11 1 59.293 25.159  2.794 
894 11 1 57.127 24.152 45.900 
895 11 1 54.942 23.347 44.870 
896 11 1 53.012 22.973 43.192 
897 11 1 51.081 22.474 41.524 
898 11 1 49.554 21.800 39.687 
899 11 1 47.896 21.305 37.784 
900 11 1 45.971 20.765 36.204 
901 11 1 44.094 22.388 35.356 
902 11 1 42.013 21.857 33.957 
903 11 1 39.554 22.701 34.368 
904 11 1 37.200 23.487 34.893 
905 11 1 35.295 23.580 36.213 
906 11 1 33.802 22.857 38.173 
907 11 1 31.856 22.159 39.018 
908 11 1 29.701 22.106 39.744 
909 12 1 30.602 40.567 20.064 
910 12 1 30.227 40.510 22.668 
911 12 1 29.691 41.035 25.186 
912 12 1 28.333 41.569 27.134 
913 12 1 25.930 41.888 28.101 
914 12 1 24.045  6.279 27.029 
915 12 1 21.908 42.743 25.717 
916 12 1 19.889 42.191 24.306 
917 12 1 17.605 41.829 23.258 
918 12 1 15.165 41.534 22.410 
919 12 1 12.721 41.204 21.716 
920 12 1 10.690 41.815 23.148 
921 12 1  8.638 42.142 24.636 
922 12 1  7.234 43.760 23.780 
923 12 1  6.680  8.908 22.790 
924 12 1  7.075 10.710 21.114 
925 12 1  9.230 12.230 21.119 
926 12 1 11.445 12.106 20.021 
927 12 1 13.744 12.106 18.948 
928 12 1 15.762 12.204 17.389 
929 12 1 17.841 12.344 15.853 
930 12 1 19.782 12.527 14.121 
931 12 1 21.113 14.323 14.937 
932 12 1 22.119 16.190 16.423 
933 12 1 22.701 18.123 17.993 
934 12 1 23.151 19.899 19.775 
935 12 1 23.832 19.440 22.266 
936 12 1 24.232 18.906 24.822 
937 12 1 24.744 18.463 27.358 
938 12 1 26.985 18.770 28.791 
939 12 1 27.687 20.995 29.314 
940 12 1 28.049 23.542 28.698 
941 12 1 28.209 25.976 27.765 
942 12 1 30.509 26.672 27.667 
943 12 1 32.822 26.904 28.636 
944 12 1 35.114 26.414 29.628 
945 12 1 37.470 26.277 30.642 
946 12 1 39.781 26.476 31.667 
947 12 1 42.079 26.668 32.792 
948 12 1 44.342 26.810 33.970 
949 12 1 46.387 26.538 35.437 
950 12 1 48.603 26.733 36.311 
951 12 1 49.402 29.102 37.073 
952 12 1 50.257 31.376 37.759 
953 12 1 51.007 33.850 38.231 
954 12 1 51.212 35.495 39.824 
955 12 1 49.867 36.372 41.510 
956 12 1 47.929 37.307 42.774 
957 12 1 46.719 35.550 43.717 
958 12 1 47.524 35.295 46.175 
959 12 1 48.295 35.127  4.554 
960 12 1 49.099 35.018  6.993 
961 12 1 51.535 35.115  7.988 
962 12 1 53.777 35.549  9.224 
963 12 1 55.990 35.976 10.393 
964 12 1 58.166 36.701 11.682 
965 12 1 58.574 38.045 13.806 
966 12 1 58.624 39.377 16.038 
967 12 1 59.430 40.726 18.093 
968 12 1 60.392 41.892 20.279 
969 12 1 -9.444  6.156 22.247 
970 12 1 -8.736  7.757 24.086 
971 12 1 -8.709  9.089 26.329 
972 12 1 -8.585 10.420 28.543 
973 12 1 -7.960 11.870 30.483 
974 12 1 -6.801 13.703 31.795 
975 12 1 -6.332 15.950 32.387 
976 12 1 -6.474 18.552 32.203 
977 12 1 -6.709 21.035 32.531 
978 12 1 -6.488 22.782 33.903 
979 12 1 -5.464 23.680 36.003 
980 12 1 -6.591 23.639 38.313 
981 12 1 -6.508 22.423 40.534 
982 12 1 -6.473 21.254 42.818 
983 12 1 -6.396 19.713 44.864 
984 12 1 -6.559 17.960 46.743 
985 12 1 -7.148 16.519  4.566 
986 12 1 -7.610 14.830  6.460 