LAMMPS data file generated by aa2cg.

2000 atoms
1 atom types
1975 bonds
1 bond types
1950 angles
1 angle types
1925 dihedrals
1 dihedral types

 0.000 41.527 xlo xhi
 0.000 49.592 ylo yhi
 0.000 56.327 zlo zhi

Masses

1 24.022

Atoms # molecular

1 1 1 11.629 45.464 14.821 
2 1 1 16.365 31.535 31.385 
3 2 1 34.122 38.240 14.398 
4 2 1 44.240 23.825 18.103 
5 3 1  4.269  7.517 32.130 
6 3 1 33.103 21.313 50.470 
7 4 1 40.782 24.722  3.144 
8 4 1 30.734  1.200 43.561 
9 5 1 28.056 27.719 -1.068 
10 5 1  8.742 25.218 44.820 
11 6 1  7.989 25.768 31.653 
12 6 1 20.431 24.414 13.386 
13 7 1 15.033 49.523  6.912 
14 7 1 31.542  9.145 10.935 
15 8 1 18.427 31.873 43.431 
16 8 1 20.703 36.078 18.198 
17 9 1 12.347 32.651 15.293 
18 9 1 20.497 41.809  2.607 
19 10 1 10.630 21.424 18.487 
20 10 1 29.008  8.806 49.638 
21 11 1 28.453 15.237 29.674 
22 11 1  5.356 20.783 30.758 
23 12 1 11.851 37.937 48.686 
24 12 1 38.186  5.227 48.980 
25 13 1 44.555 20.825 -1.497 
26 13 1 24.650 30.352 26.950 
27 14 1 44.683 28.576 32.948 
28 14 1 22.262  9.361 -2.148 
29 15 1 15.711 25.202 14.423 
30 15 1 35.983 27.335 19.089 
31 16 1  4.830 11.920 48.997 
32 16 1 26.068  0.675 43.370 
33 17 1 33.302 14.166 10.080 
34 17 1 16.479  4.586 26.768 
35 18 1 31.689 17.057 45.339 
36 18 1 36.104  4.877 24.097 
37 19 1 24.340 28.547  7.521 
38 19 1 34.353 45.539 13.731 
39 20 1 30.730 43.844  0.719 
40 20 1  4.125  0.472 19.732 
41 21 1 17.518 15.390 14.011 
42 21 1 45.131 44.458 48.987 
43 22 1 18.987 19.647  0.760 
44 22 1 21.278 25.252 38.528 
45 23 1 22.131 25.679 22.744 
46 23 1 12.336  5.193 30.074 
47 24 1 43.570 48.472 46.734 
48 24 1 13.713 17.299 -0.066 
49 25 1 28.957 46.758 31.399 
50 25 1 39.719 24.127  9.319 
51 1 1 12.369 45.853 12.445 
52 1 1 14.820 46.759 11.790 
53 1 1 17.167 47.556 11.161 
54 1 1 19.471 48.463 10.518 
55 1 1 21.700 49.273  9.723 
56 1 1 23.787 49.523  8.303 
57 1 1 25.871  0.083  6.760 
58 1 1 26.486  1.939  5.005 
59 1 1 28.764  2.742  4.863 
60 1 1 30.929  4.138  5.256 
61 1 1 33.187  5.236  6.088 
62 1 1 35.484  5.989  6.627 
63 1 1 35.852  8.254  6.941 
64 1 1 35.381 10.810  6.926 
65 1 1 33.159 11.876  6.145 
66 1 1 30.951 12.866  5.276 
67 1 1 29.117 13.950  6.812 
68 1 1 28.371 16.337  6.338 
69 1 1 27.689 18.834  6.214 
70 1 1 25.355 19.888  5.870 
71 1 1 22.840 20.418  5.559 
72 1 1 20.459 21.320  5.283 
73 1 1 19.037 22.648  4.124 
74 1 1 18.111 23.912  2.101 
75 1 1 18.766 23.923 -0.447 
76 1 1 19.289 24.042 -2.994 
77 1 1 19.424 26.157 51.848 
78 1 1 19.707 28.054 50.230 
79 1 1 19.871 30.004 48.574 
80 1 1 20.867 31.881 47.651 
81 1 1 23.295 31.447 47.367 
82 1 1 25.773 30.861 47.763 
83 1 1 27.494 29.480 48.650 
84 1 1 28.743 27.846 50.172 
85 1 1 30.772 27.044 50.926 
86 1 1 33.254 26.816 51.155 
87 1 1 35.602 26.152 51.391 
88 1 1 37.670 25.038 50.925 
89 1 1 39.351 23.489 49.860 
90 1 1 41.108 22.309 48.377 
91 1 1 40.468 20.138 47.835 
92 1 1 40.823 17.673 48.264 
93 1 1 41.523 15.248 48.682 
94 1 1 41.949 13.180 47.896 
95 1 1 39.706 12.310 47.689 
96 1 1 37.584 10.995 48.303 
97 1 1 35.246 10.493 48.463 
98 1 1 33.727 12.398 49.443 
99 1 1 31.265 12.899 50.098 
100 1 1 28.773 12.929 50.731 
101 1 1 26.160 12.916 51.137 
102 1 1 23.608 12.774 51.064 
103 1 1 21.147 12.323 50.453 
104 1 1 19.008 13.726 50.542 
105 1 1 16.749 13.247 49.381 
106 1 1 14.327 12.870 48.468 
107 1 1 13.225 13.480 46.142 
108 1 1 10.738 13.620 45.217 
109 1 1  9.602 15.902 44.702 
110 1 1  8.501 18.076 44.079 
111 1 1  7.368 20.093 43.079 
112 1 1  6.306 22.030 41.836 
113 1 1  5.116 23.839 40.556 
114 1 1  4.074 25.964 39.447 
115 1 1 44.549 28.029 38.410 
116 1 1 43.039 29.906 37.309 
117 1 1 41.075 31.244 37.534 
118 1 1 38.814 32.201 38.519 
119 1 1 37.129 33.569 39.958 
120 1 1 34.635 33.053 40.218 
121 1 1 32.194 32.539 40.659 
122 1 1 30.343 31.156 40.551 
123 1 1 28.072 31.693 39.423 
124 1 1 25.827 32.037 38.353 
125 1 1 23.430 31.839 37.523 
126 1 1 22.323 32.081 35.255 
127 1 1 20.548 32.392 33.345 
128 1 1 18.909 32.278 31.362 
129 2 1 32.346 37.091 15.837 
130 2 1 30.750 35.816 17.425 
131 2 1 30.147 33.855 18.627 
132 2 1 29.358 31.963 19.770 
133 2 1 27.820 30.933 21.519 
134 2 1 26.895 29.292 22.953 
135 2 1 26.945 27.174 24.391 
136 2 1 27.112 24.674 23.626 
137 2 1 27.191 22.918 22.041 
138 2 1 26.776 22.226 19.662 
139 2 1 26.130 21.928 17.141 
140 2 1 27.888 21.331 15.634 
141 2 1 30.267 20.445 15.077 
142 2 1 32.335 19.124 14.724 
143 2 1 34.464 17.657 14.643 
144 2 1 35.547 15.521 14.485 
145 2 1 35.699 13.101 13.746 
146 2 1 35.701 10.691 12.935 
147 2 1 35.878  8.308 12.157 
148 2 1 35.900  5.919 11.356 
149 2 1 35.862  3.530 10.504 
150 2 1 33.850  1.948 10.150 
151 2 1 31.916  0.287  9.736 
152 2 1 29.904 48.207  9.221 
153 2 1 28.524 46.397 10.455 
154 2 1 27.120 44.661 11.681 
155 2 1 25.216 43.389 12.851 
156 2 1 23.534 43.324 11.259 
157 2 1 21.770 43.107  9.764 
158 2 1 19.564 42.572 10.943 
159 2 1 17.249 42.148 11.825 
160 2 1 16.063 39.872 12.343 
161 2 1 14.460 38.770 10.766 
162 2 1 12.458 37.654  9.536 
163 2 1 10.259 36.683  8.560 
164 2 1  8.064 36.687  9.874 
165 2 1  5.956 36.947 11.251 
166 2 1  3.936 36.718 12.928 
167 2 1 43.312 36.397 14.368 
168 2 1 41.440 36.582 15.934 
169 2 1 39.742 37.875 16.843 
170 2 1 37.684 39.328 16.756 
171 2 1 35.585 40.849 16.743 
172 2 1 33.422 41.406 17.512 
173 2 1 31.448 40.890 19.088 
174 2 1 29.783 40.071 20.819 
175 2 1 27.998 39.629 22.577 
176 2 1 26.299 39.301 24.491 
177 2 1 24.284 39.490 26.199 
178 2 1 22.335 39.915 27.850 
179 2 1 21.197 39.207 29.754 
180 2 1 20.905 37.566 31.804 
181 2 1 20.894 36.980 33.921 
182 2 1 23.085 36.409 35.045 
183 2 1 25.371 36.097 36.091 
184 2 1 27.180 37.546 35.981 
185 2 1 28.629 39.448 35.101 
186 2 1 29.746 39.830 33.275 
187 2 1 30.501 40.553 31.109 
188 2 1 31.385 42.394 29.436 
189 2 1 31.995 44.385 27.892 
190 2 1 33.254 45.797 26.547 
191 2 1 35.344 46.539 25.220 
192 2 1 37.308 46.646 23.607 
193 2 1 39.213 46.390 21.886 
194 2 1 40.938 46.261 19.935 
195 2 1 42.578 46.057 17.871 
196 2 1 44.460 46.140 16.062 
197 2 1  4.913 44.419 16.085 
198 2 1  6.777 42.701 16.249 
199 2 1  7.963 41.086 17.473 
200 2 1  6.746 39.236 18.289 
201 2 1  5.014 37.274 18.222 
202 2 1  3.611 35.257 18.900 
203 2 1 44.772 33.060 19.361 
204 2 1 45.205 30.560 19.224 
205 2 1 45.769 28.064 19.059 
206 2 1  4.154 25.841 18.594 
207 3 1 44.836  8.366 29.913 
208 3 1 45.083 10.653 28.590 
209 3 1 44.354 13.029 29.286 
210 3 1 43.407 15.359 29.850 
211 3 1 42.341 17.747 30.296 
212 3 1 40.974 19.971 30.710 
213 3 1 39.986 22.291 31.498 
214 3 1 38.578 24.436 31.872 
215 3 1 37.005 25.804 33.049 
216 3 1 37.913 26.070 35.507 
217 3 1 38.998 26.829 37.633 
218 3 1 40.237 27.480 39.823 
219 3 1 41.442 28.229 41.891 
220 3 1 41.220 30.420 43.070 
221 3 1 41.102 32.816 44.001 
222 3 1 40.538 33.777 46.275 
223 3 1 39.249 34.631 47.973 
224 3 1 37.190 34.671 49.505 
225 3 1 35.993 35.452 51.415 
226 3 1 35.802 36.599 -2.672 
227 3 1 34.670 37.860 -1.220 
228 3 1 32.328 38.806 -0.819 
229 3 1 31.900 40.356 -2.499 
230 3 1 31.956 42.313 52.190 
231 3 1 32.485 44.811 -3.599 
232 3 1 34.425 46.345 51.733 
233 3 1 36.354 47.957 51.049 
234 3 1 38.140 49.790 50.540 
235 3 1 40.103  1.495 49.413 
236 3 1 42.049  2.850 48.407 
237 3 1 41.906  3.831 46.060 
238 3 1 41.949  3.671 43.775 
239 3 1 42.247  2.458 41.563 
240 3 1 42.940  1.507 39.327 
241 3 1 42.925  1.733 37.087 
242 3 1 42.863  3.134 34.937 
243 3 1 42.520  3.996 32.608 
244 3 1 42.209  4.446 30.022 
245 3 1 39.975  5.420 29.087 
246 3 1 37.632  5.419 28.896 
247 3 1 35.213  4.802 29.602 
248 3 1 34.479  3.037 31.233 
249 3 1 33.225  1.791 33.173 
250 3 1 31.773  1.006 35.195 
251 3 1 30.391  0.199 37.262 
252 3 1 28.872 49.017 39.359 
253 3 1 28.577 47.830 41.317 
254 3 1 29.560 46.068 42.708 
255 3 1 30.223 43.557 43.128 
256 3 1 30.010 41.227 43.699 
257 3 1 28.507 39.316 44.276 
258 3 1 26.293 40.001 44.357 
259 3 1 24.239 41.217 44.137 
260 3 1 21.753 41.083 43.995 
261 3 1 19.971 41.127 42.177 
262 3 1 18.225 40.803 40.300 
263 3 1 16.538 40.320 38.382 
264 3 1 15.054 38.198 38.289 
265 3 1 13.614 36.085 37.987 
266 3 1 11.744 34.235 37.868 
267 3 1 10.324 32.440 38.487 
268 3 1  8.866 31.047 40.197 
269 3 1 10.053 29.805 41.894 
270 3 1 11.645 30.728 43.695 
271 3 1 13.563 31.721 45.058 
272 3 1 14.912 33.319 46.087 
273 3 1 16.418 34.881 46.987 
274 3 1 18.631 35.930 47.960 
275 3 1 20.777 36.332 46.531 
276 3 1 22.735 36.825 44.920 
277 3 1 25.112 36.028 45.524 
278 3 1 27.421 34.924 45.804 
279 3 1 29.008 33.228 45.601 
280 3 1 30.099 30.945 45.275 
281 3 1 31.471 29.002 44.405 
282 3 1 31.305 26.801 45.486 
283 3 1 31.610 24.874 47.112 
284 3 1 32.307 22.885 48.595 
285 4 1 40.969 24.781  0.514 
286 4 1 40.081 26.729 -0.888 
287 4 1 41.235 28.273 -2.627 
288 4 1 42.102 30.280 -4.139 
289 4 1 42.755 32.580 51.038 
290 4 1 43.152 35.017 50.427 
291 4 1 43.277 37.585 50.122 
292 4 1 43.361 40.252 50.109 
293 4 1 41.626 41.939 49.588 
294 4 1 40.096 43.769 48.452 
295 4 1 38.564 45.626 47.389 
296 4 1 37.034 47.410 46.490 
297 4 1 37.521 48.578 44.242 
298 4 1 38.013 49.490 41.888 
299 4 1 38.947  0.453 39.538 
300 4 1 38.351  2.301 37.844 
301 4 1 37.733  4.187 36.227 
302 4 1 37.063  6.014 34.487 
303 4 1 36.377  7.602 32.675 
304 4 1 35.968  9.146 30.582 
305 4 1 35.384 10.794 28.709 
306 4 1 34.684 12.945 27.653 
307 4 1 33.784 15.345 27.251 
308 4 1 32.957 17.887 27.290 
309 4 1 32.002 20.222 26.962 
310 4 1 30.788 22.535 27.400 
311 4 1 29.449 24.189 28.458 
312 4 1 28.019 25.665 29.545 
313 4 1 27.189 28.084 30.307 
314 4 1 26.484 30.389 31.202 
315 4 1 25.986 32.468 32.533 
316 4 1 25.308 34.366 31.393 
317 4 1 24.717 35.666 29.540 
318 4 1 24.932 34.412 27.266 
319 4 1 26.650 34.321 25.373 
320 4 1 28.683 34.772 24.589 
321 4 1 30.683 35.792 23.785 
322 4 1 32.364 37.035 22.145 
323 4 1 34.481 37.195 21.386 
324 4 1 36.928 36.417 21.110 
325 4 1 39.182 35.440 20.579 
326 4 1 39.858 33.021 20.400 
327 4 1 40.500 30.550 19.917 
328 4 1 40.928 28.134 19.388 
329 4 1 40.558 25.755 19.501 
330 4 1 39.457 23.469 20.163 
331 4 1 40.995 21.537 20.683 
332 4 1 43.034 20.304 21.053 
333 4 1 45.544 19.747 21.303 
334 4 1  5.917 21.532 20.979 
335 4 1  7.463 23.578 21.038 
336 4 1  8.443 25.541 20.408 
337 4 1  8.733 27.221 18.510 
338 4 1  9.214 29.257 17.781 
339 4 1  8.855 31.304 18.816 
340 4 1  8.582 33.218 20.097 
341 4 1  9.340 35.215 21.546 
342 4 1  9.994 37.428 22.187 
343 4 1 10.960 39.804 21.921 
344 4 1 11.550 42.167 21.155 
345 4 1 11.869 44.601 20.203 
346 4 1 13.945 46.012 19.341 
347 4 1 16.005 47.495 19.156 
348 4 1 17.884 49.120 19.104 
349 4 1 19.641  1.367 18.840 
350 4 1 21.435  2.593 19.547 
351 4 1 23.510  2.737 21.060 
352 4 1 25.572  3.159 22.578 
353 4 1 27.452  3.744 24.191 
354 4 1 29.196  4.376 26.094 
355 4 1 30.433  6.075 27.272 
356 4 1 31.269  7.457 29.039 
357 4 1 31.521  8.394 31.344 
358 4 1 32.015  7.110 33.549 
359 4 1 32.580  5.939 35.705 
360 4 1 32.912  4.551 37.847 
361 4 1 32.849  3.106 39.993 
362 4 1 32.850  1.551 42.032 
363 5 1 30.528 27.625 -0.759 
364 5 1 33.083 27.338 -0.623 
365 5 1 35.646 26.966 -0.666 
366 5 1 35.935 24.844  0.502 
367 5 1 36.102 22.309  0.990 
368 5 1 35.889 19.795  1.358 
369 5 1 35.062 17.773 -0.120 
370 5 1 33.962 15.957 -1.492 
371 5 1 32.733 14.101 -0.733 
372 5 1 30.746 13.178  0.609 
373 5 1 28.618 12.286  1.796 
374 5 1 26.593 11.541  3.129 
375 5 1 25.243 10.889  4.882 
376 5 1 24.528 10.398  7.331 
377 5 1 26.115 11.033  9.278 
378 5 1 27.683 11.658 11.131 
379 5 1 29.175 12.415 13.081 
380 5 1 30.570 13.279 14.986 
381 5 1 31.846 14.340 16.978 
382 5 1 32.690 14.934 19.345 
383 5 1 33.438 15.865 21.591 
384 5 1 33.006 18.220 22.353 
385 5 1 32.488 20.640 23.046 
386 5 1 31.854 23.027 23.405 
387 5 1 31.376 25.439 23.691 
388 5 1 31.772 27.632 23.135 
389 5 1 32.502 29.854 22.970 
390 5 1 33.454 31.948 23.932 
391 5 1 34.460 33.774 25.325 
392 5 1 36.113 35.142 26.183 
393 5 1 38.390 35.969 25.490 
394 5 1 40.687 36.800 24.722 
395 5 1 42.827 37.700 23.705 
396 5 1 45.215 38.380 22.774 
397 5 1  5.351 39.777 22.124 
398 5 1  6.430 41.024 23.998 
399 5 1  6.800 41.321 26.209 
400 5 1  6.744 40.633 28.628 
401 5 1  6.471 40.015 31.156 
402 5 1  4.609 38.829 32.481 
403 5 1 44.429 37.301 33.760 
404 5 1 42.749 35.483 34.575 
405 5 1 42.768 33.643 33.185 
406 5 1 42.950 32.995 30.622 
407 5 1 43.273 32.597 28.144 
408 5 1 43.116 32.058 25.651 
409 5 1 42.694 30.531 23.979 
410 5 1 42.076 28.060 23.259 
411 5 1 43.208 25.855 23.715 
412 5 1 44.483 23.772 24.275 
413 5 1  4.046 21.728 25.439 
414 5 1  5.114 19.658 26.498 
415 5 1  5.957 17.517 27.585 
416 5 1  6.646 15.382 28.895 
417 5 1  7.562 13.352 30.119 
418 5 1  6.648 12.456 32.367 
419 5 1  4.610 12.180 33.442 
420 5 1 43.677 12.460 33.983 
421 5 1 41.232 12.889 34.447 
422 5 1 39.156 12.452 35.283 
423 5 1 37.315 11.050 36.362 
424 5 1 35.847  9.151 37.357 
425 5 1 35.450  8.396 39.778 
426 5 1 34.452  8.486 41.894 
427 5 1 32.885  9.329 43.752 
428 5 1 31.373 10.508 45.452 
429 5 1 29.453 12.194 44.826 
430 5 1 28.482 14.267 45.783 
431 5 1 27.485 16.453 46.614 
432 5 1 25.152 16.776 47.638 
433 5 1 22.627 17.040 48.106 
434 5 1 20.125 17.455 48.433 
435 5 1 17.556 17.766 48.679 
436 5 1 14.933 18.279 48.693 
437 5 1 12.387 18.439 48.489 
438 5 1 10.959 20.544 49.368 
439 5 1  9.235 22.150 48.294 
440 5 1  8.328 23.767 46.896 
441 6 1 10.462 25.602 32.250 
442 6 1 11.642 26.505 34.355 
443 6 1 12.746 27.642 36.302 
444 6 1 13.614 29.193 38.097 
445 6 1 14.286 31.121 39.641 
446 6 1 15.104 33.224 40.911 
447 6 1 15.805 35.307 42.134 
448 6 1 16.770 37.304 43.496 
449 6 1 16.661 39.166 45.003 
450 6 1 16.133 40.133 47.064 
451 6 1 16.052 40.513 49.614 
452 6 1 16.716 41.351 51.783 
453 6 1 17.227 43.016 -3.001 
454 6 1 16.717 45.279 -2.383 
455 6 1 16.558 47.846 -2.849 
456 6 1 16.245  0.809 -2.904 
457 6 1 16.811  1.797 51.368 
458 6 1 18.102  2.465 49.516 
459 6 1 19.969  3.734 48.220 
460 6 1 22.231  2.597 47.671 
461 6 1 23.999  1.264 48.449 
462 6 1 25.302 -0.115 50.138 
463 6 1 26.433 48.125 52.033 
464 6 1 27.097 46.284 -2.937 
465 6 1 27.185 43.821 -2.530 
466 6 1 27.117 41.310 -2.309 
467 6 1 27.359 38.742 -2.119 
468 6 1 27.397 36.261 -1.693 
469 6 1 28.285 34.178 -1.402 
470 6 1 30.225 32.670 -0.754 
471 6 1 32.257 31.222 -0.105 
472 6 1 34.607 31.330 -1.054 
473 6 1 36.993 31.805 -1.772 
474 6 1 39.270 32.802 -2.103 
475 6 1 40.393 34.736 -2.257 
476 6 1 40.676 37.309 -2.052 
477 6 1 41.036 39.804 -1.724 
478 6 1 40.578 40.603  0.446 
479 6 1 40.853 40.823  2.971 
480 6 1 42.817 42.097  4.004 
481 6 1 44.881 43.202  5.137 
482 6 1  5.485 44.063  6.264 
483 6 1  7.838 44.692  7.141 
484 6 1  9.508 46.121  7.631 
485 6 1 10.342 48.606  7.429 
486 6 1 11.428  1.335  7.294 
487 6 1 10.388  3.557  6.436 
488 6 1  9.642  5.697  7.696 
489 6 1  9.064  7.966  8.822 
490 6 1  8.693 10.439  9.633 
491 6 1  8.402 12.893 10.432 
492 6 1  8.158 15.266 11.367 
493 6 1  9.947 17.148 10.687 
494 6 1 11.548 19.037 10.070 
495 6 1 11.196 19.888  7.669 
496 6 1 10.206 20.785  5.519 
497 6 1  8.853 23.016  5.298 
498 6 1  8.280 25.280  5.525 
499 6 1  8.635 27.656  6.597 
500 6 1  7.370 28.468  8.704 
501 6 1  5.557 28.974 10.039 
502 6 1 44.528 28.971 10.234 
503 6 1 41.952 29.432 10.584 
504 6 1 39.714 30.529 11.095 
505 6 1 37.406 31.458 11.565 
506 6 1 35.088 32.659 11.805 
507 6 1 32.710 33.467 12.211 
508 6 1 30.437 34.664 12.355 
509 6 1 28.291 36.026 12.269 
510 6 1 26.231 37.461 12.168 
511 6 1 24.112 38.916 11.883 
512 6 1 21.884 37.988 11.122 
513 6 1 20.317 36.532  9.997 
514 6 1 19.391 34.358  9.016 
515 6 1 18.253 32.088  8.527 
516 6 1 19.401 29.722  8.492 
517 6 1 20.124 28.004  9.723 
518 6 1 20.244 26.217 11.593 
519 7 1 17.054  1.471  6.919 
520 7 1 19.240  2.816  6.760 
521 7 1 21.445  4.206  6.712 
522 7 1 23.581  5.679  7.094 
523 7 1 25.709  6.109  7.799 
524 7 1 27.614  5.467  9.347 
525 7 1 29.451  4.756 11.041 
526 7 1 31.261  3.964 12.680 
527 7 1 33.012  3.198 14.470 
528 7 1 33.169  1.145 16.012 
529 7 1 33.461 48.792 17.640 
530 7 1 33.808 46.711 19.150 
531 7 1 34.202 44.642 20.708 
532 7 1 34.265 42.896 22.489 
533 7 1 34.078 41.285 24.532 
534 7 1 33.699 39.703 26.570 
535 7 1 33.308 38.173 28.620 
536 7 1 32.795 36.416 30.410 
537 7 1 30.848 35.132 30.152 
538 7 1 29.302 33.491 29.045 
539 7 1 29.860 31.063 28.174 
540 7 1 31.254 29.261 27.568 
541 7 1 33.238 27.736 27.253 
542 7 1 34.632 25.909 27.778 
543 7 1 35.491 23.718 28.298 
544 7 1 36.304 21.366 28.121 
545 7 1 37.090 18.874 28.413 
546 7 1 38.087 16.430 28.546 
547 7 1 38.999 14.126 29.165 
548 7 1 40.071 12.135 27.860 
549 7 1 39.914  9.768 28.755 
550 7 1 40.886  9.280 31.109 
551 7 1 41.530  8.675 33.536 
552 7 1 42.163  8.196 35.900 
553 7 1 40.914  7.357 37.958 
554 7 1 39.647  6.372 39.867 
555 7 1 38.229  5.154 41.611 
556 7 1 36.917  3.811 43.390 
557 7 1 35.517  2.615 45.213 
558 7 1 34.037  1.241 46.925 
559 7 1 32.580 -0.575 47.161 
560 7 1 31.385 47.036 47.687 
561 7 1 32.538 44.938 47.897 
562 7 1 33.652 42.759 47.320 
563 7 1 32.853 40.464 48.106 
564 7 1 32.208 38.080 49.006 
565 7 1 31.748 35.669 49.856 
566 7 1 31.548 33.170 50.447 
567 7 1 32.295 31.119 51.224 
568 7 1 34.745 30.692 50.680 
569 7 1 37.161 30.107 50.317 
570 7 1 38.956 28.849 49.380 
571 7 1 39.726 27.099 47.674 
572 7 1 40.465 25.801 45.656 
573 7 1 41.585 24.704 43.710 
574 7 1 42.421 22.623 43.333 
575 7 1 43.401 20.394 44.074 
576 7 1 44.741 18.584 45.137 
577 7 1  4.757 16.916 46.407 
578 7 1  6.574 15.833 47.883 
579 7 1  8.782 15.148 49.144 
580 7 1 11.159 14.514 50.209 
581 7 1 11.461 13.797 52.728 
582 7 1 13.791 13.491 -2.436 
583 7 1 16.129 13.467 -1.208 
584 7 1 17.046 11.397 -0.752 
585 7 1 17.893  9.180 -1.722 
586 7 1 18.951  7.048 -2.806 
587 7 1 19.968  4.899 -3.003 
588 7 1 21.191  2.756 -2.075 
589 7 1 23.756  2.071 -1.926 
590 7 1 26.189  1.299 -1.400 
591 7 1 27.186  2.670  0.217 
592 7 1 27.877  4.860  1.410 
593 7 1 28.831  6.907  2.563 
594 7 1 28.994  8.223  4.377 
595 7 1 29.552  8.851  6.619 
596 7 1 31.046  9.205  8.644 
597 8 1 20.194 32.806 42.210 
598 8 1 22.434 33.967 41.807 
599 8 1 24.816 34.742 41.563 
600 8 1 27.185 35.547 41.218 
601 8 1 29.603 36.466 40.964 
602 8 1 31.756 36.839 40.202 
603 8 1 33.009 36.931 38.224 
604 8 1 33.368 37.909 35.907 
605 8 1 34.512 38.872 33.957 
606 8 1 35.612 39.911 32.147 
607 8 1 36.276 41.071 29.976 
608 8 1 37.493 41.812 27.788 
609 8 1 39.033 42.309 25.831 
610 8 1 38.654 41.888 23.293 
611 8 1 38.370 41.688 20.731 
612 8 1 38.100 43.484 18.937 
613 8 1 37.722 44.683 16.683 
614 8 1 39.100 44.876 14.546 
615 8 1 40.423 46.130 13.056 
616 8 1 39.321 48.079 11.907 
617 8 1 38.885  0.800 12.930 
618 8 1 38.261  3.102 13.949 
619 8 1 37.733  5.311 15.007 
620 8 1 37.950  6.928 16.574 
621 8 1 38.626  8.135 18.785 
622 8 1 40.992  8.233 19.952 
623 8 1 43.241  8.838 21.063 
624 8 1 45.507  9.362 21.167 
625 8 1  5.942 10.826 20.645 
626 8 1  8.053 11.574 19.938 
627 8 1  9.965 12.379 18.939 
628 8 1 11.322 14.206 17.746 
629 8 1 12.504 16.143 16.394 
630 8 1 13.586 17.834 14.904 
631 8 1 15.220 19.231 14.158 
632 8 1 17.490 20.536 14.266 
633 8 1 18.913 21.043 16.374 
634 8 1 20.261 21.169 18.565 
635 8 1 19.071 22.558 20.109 
636 8 1 17.937 23.747 21.932 
637 8 1 17.482 25.846 22.690 
638 8 1 16.510 27.979 23.055 
639 8 1 15.116 29.693 24.443 
640 8 1 16.411 31.010 25.804 
641 8 1 18.149 32.865 26.464 
642 8 1 19.631 34.675 27.572 
643 8 1 20.878 35.788 25.954 
644 8 1 22.364 35.820 23.919 
645 8 1 24.187 35.744 22.096 
646 8 1 25.249 35.485 20.015 
647 8 1 25.525 35.033 17.538 
648 8 1 25.672 34.324 15.108 
649 8 1 26.867 32.085 14.439 
650 8 1 28.656 30.656 13.974 
651 8 1 31.134 30.090 14.439 
652 8 1 33.571 29.417 15.174 
653 8 1 36.191 29.098 15.543 
654 8 1 38.646 28.509 15.326 
655 8 1 41.182 27.958 15.110 
656 8 1 43.732 27.679 14.847 
657 8 1 46.117 27.293 14.164 
658 8 1  6.567 26.070 14.022 
659 8 1  6.382 23.575 14.848 
660 8 1  5.873 21.242 15.953 
661 8 1  4.188 19.779 16.466 
662 8 1 43.143 19.112 16.638 
663 8 1 40.699 18.651 17.265 
664 8 1 38.223 18.354 17.959 
665 8 1 36.693 20.323 18.690 
666 8 1 34.167 20.403 18.540 
667 8 1 32.467 22.428 18.451 
668 8 1 31.017 24.439 18.480 
669 8 1 29.390 26.501 18.130 
670 8 1 27.641 28.397 18.083 
671 8 1 25.215 27.932 17.445 
672 8 1 23.626 29.822 17.383 
673 8 1 22.212 31.889 16.592 
674 8 1 21.111 33.938 16.779 
675 9 1 13.906 34.275 15.769 
676 9 1 14.804 36.322 17.037 
677 9 1 15.934 38.232 18.439 
678 9 1 17.323 39.964 19.776 
679 9 1 16.852 42.543 20.131 
680 9 1 18.791 44.263 20.571 
681 9 1 20.806 45.818 21.047 
682 9 1 23.011 46.830 21.780 
683 9 1 25.074 48.021 22.569 
684 9 1 26.190 47.950 24.914 
685 9 1 26.028 47.325 27.102 
686 9 1 24.526 46.086 28.962 
687 9 1 23.061 44.655 30.446 
688 9 1 21.282 43.325 31.871 
689 9 1 19.109 42.046 32.493 
690 9 1 17.120 40.493 33.020 
691 9 1 15.226 38.848 33.758 
692 9 1 13.454 36.979 33.850 
693 9 1 10.982 37.158 34.523 
694 9 1  8.480 37.116 35.010 
695 9 1  6.833 35.168 35.185 
696 9 1  5.927 33.433 36.355 
697 9 1  5.339 34.042 38.734 
698 9 1  4.755 32.263 40.564 
699 9 1  4.416 30.173 42.058 
700 9 1  4.383 27.982 43.635 
701 9 1  4.448 25.892 45.050 
702 9 1  4.398 23.795 46.496 
703 9 1  4.322 21.775 47.959 
704 9 1 45.361 19.918 49.611 
705 9 1 44.635 17.983 51.204 
706 9 1 45.039 15.904 52.695 
707 9 1 44.552 13.709 -3.351 
708 9 1 43.418 11.521 -3.979 
709 9 1 42.091  9.359 51.824 
710 9 1 41.876  8.822 49.612 
711 9 1 42.772  8.326 47.284 
712 9 1 43.753  8.205 44.859 
713 9 1 44.342  7.429 42.460 
714 9 1 44.816  6.560 40.230 
715 9 1 45.773  5.692 37.992 
716 9 1  5.834  5.273 35.918 
717 9 1  7.491  3.639 36.598 
718 9 1  9.233  2.171 37.671 
719 9 1 11.160  0.657 38.346 
720 9 1 11.991  0.450 40.685 
721 9 1 11.549  0.368 42.863 
722 9 1  9.965  0.792 44.825 
723 9 1  8.645  1.140 46.975 
724 9 1  7.522  0.887 49.277 
725 9 1  5.062  1.365 50.003 
726 9 1 44.654 -0.255 50.582 
727 9 1 42.927 47.678 51.468 
728 9 1 41.036 46.141 52.197 
729 9 1 40.290 45.712 -1.661 
730 9 1 39.872 45.267  0.848 
731 9 1 39.510 45.325  3.372 
732 9 1 37.461 45.407  4.454 
733 9 1 35.151 46.415  5.031 
734 9 1 34.295 48.835  4.747 
735 9 1 34.947  1.106  6.293 
736 9 1 37.301  1.520  6.921 
737 9 1 39.647  2.392  7.499 
738 9 1 41.825  2.912  7.061 
739 9 1 43.892  2.954  5.496 
740 9 1 44.056  3.964  3.143 
741 9 1 44.899  2.820  0.951 
742 9 1 45.686  1.234 -0.642 
743 9 1  5.220 -0.773 -1.814 
744 9 1  5.822 46.610 -3.004 
745 9 1  6.262 44.224 52.574 
746 9 1  6.498 41.679 52.153 
747 9 1  8.433 40.009 52.792 
748 9 1 10.575 39.378 -2.992 
749 9 1 12.785 39.383 -1.615 
750 9 1 13.344 39.958  0.956 
751 9 1 15.677 40.224  1.910 
752 9 1 18.106 40.974  2.482 
753 10 1  9.460 19.213 19.412 
754 10 1  7.942 17.222 19.988 
755 10 1  5.928 15.993 20.074 
756 10 1  3.389 15.715 19.958 
757 10 1 43.021 14.710 19.483 
758 10 1 41.209 13.325 19.134 
759 10 1 38.778 12.618 19.621 
760 10 1 36.355 11.945 20.022 
761 10 1 34.026 10.965 20.135 
762 10 1 31.522 10.084 20.092 
763 10 1 29.365 11.507 19.703 
764 10 1 27.472 13.220 19.414 
765 10 1 26.018 13.339 21.482 
766 10 1 25.315 13.634 23.634 
767 10 1 25.111 14.821 25.860 
768 10 1 24.685 15.828 28.188 
769 10 1 24.555 16.745 30.536 
770 10 1 24.781 17.802 32.838 
771 10 1 25.266 18.796 35.214 
772 10 1 25.431 21.312 35.660 
773 10 1 25.093 23.626 34.930 
774 10 1 24.420 23.615 32.453 
775 10 1 23.753 23.760 29.962 
776 10 1 22.625 22.892 27.953 
777 10 1 22.434 21.350 26.087 
778 10 1 23.338 20.071 24.144 
779 10 1 24.210 18.713 22.211 
780 10 1 24.315 17.937 19.993 
781 10 1 23.401 18.336 17.685 
782 10 1 22.562 18.923 15.226 
783 10 1 21.661 19.170 12.912 
784 10 1 20.682 18.663 10.903 
785 10 1 19.125 17.519  9.581 
786 10 1 16.809 17.068  8.663 
787 10 1 14.717 15.921  8.810 
788 10 1 14.891 13.871 10.348 
789 10 1 13.008 13.194 11.910 
790 10 1 11.044 12.726 13.513 
791 10 1 10.444 10.574 14.860 
792 10 1  9.484  8.707 16.307 
793 10 1  7.875  7.153 17.496 
794 10 1  5.783  5.901 18.366 
795 10 1  3.831  4.886 19.839 
796 10 1 43.413  3.972 21.353 
797 10 1 41.668  2.968 22.777 
798 10 1 39.838  2.284 24.493 
799 10 1 38.174  1.462 26.371 
800 10 1 36.863  0.129 28.136 
801 10 1 35.554 48.288 29.872 
802 10 1 34.504 46.902 31.560 
803 10 1 33.345 45.423 33.212 
804 10 1 31.855 43.920 34.651 
805 10 1 30.624 44.497 36.831 
806 10 1 29.320 42.719 38.254 
807 10 1 28.035 41.312 39.994 
808 10 1 25.701 40.325 39.719 
809 10 1 23.425 39.117 39.574 
810 10 1 21.433 37.703 39.153 
811 10 1 19.641 36.218 38.464 
812 10 1 18.314 35.238 36.808 
813 10 1 16.929 34.170 35.298 
814 10 1 14.744 32.881 34.967 
815 10 1 12.455 31.799 34.356 
816 10 1 10.318 30.799 33.361 
817 10 1  8.435 29.531 34.616 
818 10 1  7.324 28.595 36.445 
819 10 1  8.578 26.897 37.889 
820 10 1  9.476 25.111 39.460 
821 10 1 10.484 23.209 40.776 
822 10 1 11.565 21.215 42.137 
823 10 1 12.820 19.370 43.545 
824 10 1 14.323 17.637 44.290 
825 10 1 16.492 16.224 44.490 
826 10 1 18.684 14.872 45.002 
827 10 1 20.922 13.613 45.763 
828 10 1 22.906 12.033 46.327 
829 10 1 25.093 10.967 47.216 
830 10 1 27.073  9.876 48.335 
831 11 1 30.441 15.681 31.212 
832 11 1 32.227 17.153 31.895 
833 11 1 33.656 19.307 31.838 
834 11 1 33.995 21.614 32.045 
835 11 1 33.210 24.054 32.440 
836 11 1 32.663 26.608 32.214 
837 11 1 33.423 28.679 31.516 
838 11 1 34.973 30.284 30.293 
839 11 1 36.601 31.961 29.326 
840 11 1 38.631 31.733 27.865 
841 11 1 38.071 30.857 25.765 
842 11 1 36.992 29.257 24.153 
843 11 1 37.232 26.670 23.883 
844 11 1 37.274 24.115 23.630 
845 11 1 37.175 21.577 23.498 
846 11 1 37.166 19.057 23.531 
847 11 1 37.111 16.515 23.653 
848 11 1 36.635 14.026 24.139 
849 11 1 37.186 11.809 24.384 
850 11 1 38.739  9.718 24.396 
851 11 1 40.304  7.645 24.077 
852 11 1 42.220  7.257 25.657 
853 11 1 44.624  6.448 25.323 
854 11 1  5.369  6.427 24.668 
855 11 1  7.460  7.547 23.566 
856 11 1  9.706  8.519 22.662 
857 11 1 12.091  9.430 22.495 
858 11 1 14.362  9.417 22.374 
859 11 1 16.617  8.529 23.036 
860 11 1 18.864  7.710 23.721 
861 11 1 21.052  7.133 23.398 
862 11 1 23.124  6.944 21.814 
863 11 1 23.616  8.384 19.812 
864 11 1 24.369  9.801 17.891 
865 11 1 24.963 11.795 16.757 
866 11 1 23.401 12.547 15.151 
867 11 1 22.319 12.637 12.934 
868 11 1 21.186 13.006 10.711 
869 11 1 20.022 12.870  8.386 
870 11 1 18.282 12.483  6.935 
871 11 1 16.342 12.109  5.600 
872 11 1 15.895 10.107  4.000 
873 11 1 16.444  8.235  2.653 
874 11 1 17.957  6.270  1.824 
875 11 1 18.287  4.048  1.302 
876 11 1 17.948  1.503  1.269 
877 11 1 17.763 48.591  1.580 
878 11 1 17.329 46.126  2.225 
879 11 1 15.245 45.287  3.332 
880 11 1 12.920 44.481  4.004 
881 11 1 12.063 42.037  4.604 
882 11 1  9.714 41.111  5.177 
883 11 1  7.415 40.011  5.787 
884 11 1  5.288 38.847  6.433 
885 11 1 44.488 38.231  7.011 
886 11 1 41.943 38.177  6.916 
887 11 1 39.620 38.232  6.241 
888 11 1 37.585 39.227  7.493 
889 11 1 35.550 39.829  9.047 
890 11 1 34.074 40.915 10.806 
891 11 1 31.525 40.844 10.861 
892 11 1 30.046 40.661 12.984 
893 11 1 28.315 40.386 14.847 
894 11 1 26.559 40.164 16.586 
895 11 1 24.766 39.930 18.406 
896 11 1 22.927 39.995 20.197 
897 11 1 21.292 40.054 22.030 
898 11 1 19.488 39.451 23.327 
899 11 1 17.437 38.096 23.795 
900 11 1 15.321 36.646 23.950 
901 11 1 13.427 35.226 24.655 
902 11 1 11.404 33.743 25.414 
903 11 1  9.420 32.373 26.168 
904 11 1  7.584 30.770 27.026 
905 11 1  5.739 29.141 27.725 
906 11 1 45.274 27.637 27.962 
907 11 1 45.361 25.243 28.810 
908 11 1  4.299 22.956 29.746 
909 12 1 10.521 39.315 47.496 
910 12 1 11.517 41.352 48.100 
911 12 1 12.009 43.415 49.506 
912 12 1 11.880 43.738 52.101 
913 12 1 12.007 44.215 -1.631 
914 12 1 12.559 46.409 -0.433 
915 12 1 12.946 48.598  0.917 
916 12 1 13.311  1.128  2.392 
917 12 1 13.797  3.193  3.809 
918 12 1 14.863  5.040  5.101 
919 12 1 16.489  6.361  6.617 
920 12 1 18.304  7.468  8.023 
921 12 1 20.164  8.336  9.620 
922 12 1 22.135  8.151 11.316 
923 12 1 24.333  8.276 12.598 
924 12 1 26.683  8.463 13.492 
925 12 1 29.094  8.096 14.464 
926 12 1 31.266  7.430 15.586 
927 12 1 33.231  6.621 17.016 
928 12 1 34.968  5.618 18.505 
929 12 1 35.777  3.838 19.756 
930 12 1 36.408  1.648 19.744 
931 12 1 37.845 -0.256 18.715 
932 12 1 39.798  0.597 18.022 
933 12 1 41.749  1.830 17.463 
934 12 1 43.084  3.654 16.158 
935 12 1 42.806  6.265 15.840 
936 12 1 42.113  8.711 15.465 
937 12 1 41.337 11.142 14.996 
938 12 1 40.622 13.519 14.511 
939 12 1 39.664 15.790 13.809 
940 12 1 39.043 18.231 13.225 
941 12 1 38.608 20.696 12.899 
942 12 1 36.883 21.150 11.490 
943 12 1 34.342 20.989 10.690 
944 12 1 32.776 21.573  9.232 
945 12 1 32.064 21.630  6.709 
946 12 1 31.721 22.077  4.243 
947 12 1 31.659 22.623  1.732 
948 12 1 31.522 23.047 -0.782 
949 12 1 30.608 23.186 -2.813 
950 12 1 28.975 22.396 51.705 
951 12 1 26.896 20.854 52.046 
952 12 1 25.091 19.054 -3.986 
953 12 1 23.026 17.862 -3.775 
954 12 1 20.566 17.897 -3.223 
955 12 1 17.962 17.823 -2.857 
956 12 1 16.451 19.938 -3.149 
957 12 1 15.062 22.061 -3.721 
958 12 1 12.769 23.019 -2.912 
959 12 1 11.096 24.662 52.224 
960 12 1  9.324 26.201 51.153 
961 12 1  7.601 27.602 49.826 
962 12 1  6.919 28.942 47.965 
963 12 1  7.509 30.464 46.075 
964 12 1  8.795 32.820 46.388 
965 12 1  9.690 35.199 45.841 
966 12 1 10.523 35.879 43.488 
967 12 1 11.470 38.066 42.620 
968 12 1 12.609 40.217 41.953 
969 12 1 13.783 42.319 40.906 
970 12 1 14.744 44.222 39.463 
971 12 1 15.734 46.327 38.941 
972 12 1 16.653 48.684 39.288 
973 12 1 16.689  1.404 39.228 
974 12 1 15.471  3.734 38.979 
975 12 1 13.169  4.725 39.574 
976 12 1 10.931  5.712 40.042 
977 12 1  8.593  6.775 40.288 
978 12 1  7.404  8.535 38.818 
979 12 1  5.807 10.044 37.519 
980 12 1 44.978 10.816 38.083 
981 12 1 43.214 12.361 38.967 
982 12 1 41.257 12.904 40.041 
983 12 1 39.279 12.012 41.483 
984 12 1 39.011  9.948 42.979 
985 12 1 38.578  8.135 44.778 
986 12 1 38.241  6.503 46.772 