LAMMPS data file generated by aa2cg.

2000 atoms
1 atom types
1975 bonds
1 bond types
1950 angles
1 angle types
1925 dihedrals
1 dihedral types

 0.000 53.572 xlo xhi
 0.000 41.802 ylo yhi
 0.000 52.400 zlo zhi

Masses

1 24.022

Atoms # molecular

1 1 1 16.793  4.531 31.040 
2 1 1  7.869 11.111 15.137 
3 2 1 32.621 21.625 20.991 
4 2 1 18.158 31.145  6.653 
5 3 1 21.318 40.182 17.942 
6 3 1 35.265 15.664 31.750 
7 4 1 43.373 25.091 20.244 
8 4 1 47.608 34.076  5.774 
9 5 1 42.882 26.226  2.608 
10 5 1 21.841 32.840 28.368 
11 6 1 19.803 37.222 -1.059 
12 6 1 47.200 22.229 13.707 
13 7 1 23.631 31.902 14.801 
14 7 1 21.266 10.728 -0.698 
15 8 1 23.839  4.624 23.026 
16 8 1  2.392 13.863 23.222 
17 9 1 -0.170 15.485 26.209 
18 9 1 42.636  4.329 49.846 
19 10 1 20.337 25.612  8.420 
20 10 1 43.050 42.274 42.510 
21 11 1 14.592 12.716 41.228 
22 11 1 46.719 43.069 26.442 
23 12 1 12.285 15.603 47.077 
24 12 1  1.571 32.325  5.278 
25 13 1 49.548 26.657 10.553 
26 13 1 18.209 21.577 23.832 
27 14 1 14.821 34.989 18.030 
28 14 1 21.896  8.300 10.334 
29 15 1 41.606 24.269 28.799 
30 15 1 34.754 19.896 47.994 
31 16 1 35.638 27.891 15.282 
32 16 1 41.208  9.521 14.133 
33 17 1 30.667  4.441 12.959 
34 17 1 15.275 28.768 16.469 
35 18 1 -0.479 33.411 16.345 
36 18 1 44.507  5.956 43.633 
37 19 1 28.487 10.562 39.131 
38 19 1 24.612 44.362 47.084 
39 20 1 17.421 13.641  7.866 
40 20 1 34.939 36.570  3.268 
41 21 1 22.048 17.010 11.913 
42 21 1 10.298 33.320 39.630 
43 22 1 21.816 29.992 34.884 
44 22 1 44.305 13.721 33.446 
45 23 1 26.100 39.164 -0.253 
46 23 1  6.222 15.488  6.922 
47 24 1 14.796  6.815 46.750 
48 24 1 -2.946 19.446 27.630 
49 25 1 27.714 18.497  4.588 
50 25 1 29.718  6.909 21.438 
51 1 1 17.677  6.546 30.569 
52 1 1 18.620  8.409 29.112 
53 1 1 18.843  8.417 26.605 
54 1 1 19.398  8.888 24.132 
55 1 1 19.963  9.641 21.720 
56 1 1 22.348  9.579 20.641 
57 1 1 24.222  8.445 19.794 
58 1 1 26.061  7.554 18.944 
59 1 1 28.254  7.530 17.589 
60 1 1 30.488  7.451 16.245 
61 1 1 32.715  8.190 17.134 
62 1 1 34.981  9.064 18.071 
63 1 1 37.503  8.911 17.389 
64 1 1 39.384 10.187 18.436 
65 1 1 41.492 11.256 19.461 
66 1 1 43.693 11.991 20.538 
67 1 1 45.923 12.724 21.472 
68 1 1 48.267 13.787 21.856 
69 1 1 49.591 15.640 22.064 
70 1 1 50.805 17.625 22.333 
71 1 1 -0.764 19.137 22.540 
72 1 1  1.221 19.252 24.325 
73 1 1  3.080 19.415 26.252 
74 1 1  5.069 19.503 27.919 
75 1 1  7.566 19.347 27.207 
76 1 1  9.338 19.571 25.587 
77 1 1  9.868 19.781 23.061 
78 1 1  9.939 19.621 20.520 
79 1 1  9.755 18.847 18.148 
80 1 1 10.161 17.136 16.595 
81 1 1 11.771 15.348 15.760 
82 1 1 13.624 13.722 15.232 
83 1 1 13.509 11.202 15.743 
84 1 1 12.514  9.202 15.950 
85 1 1 11.124  7.495 15.084 
86 1 1 10.581  8.110 12.605 
87 1 1  9.832  8.799 10.226 
88 1 1  9.717 10.301  8.372 
89 1 1 10.126 12.475  6.927 
90 1 1 12.073 13.244  5.488 
91 1 1 13.738 14.113  3.668 
92 1 1 15.388 14.894  1.738 
93 1 1 15.166 16.709 -0.166 
94 1 1 15.305 18.778 -1.713 
95 1 1 16.281 18.828 48.278 
96 1 1 16.769 18.148 46.134 
97 1 1 15.059 18.537 44.598 
98 1 1 13.508 18.822 42.912 
99 1 1 11.765 17.966 41.168 
100 1 1  9.539 17.394 40.426 
101 1 1  8.609 14.991 40.470 
102 1 1  7.760 13.075 39.537 
103 1 1  5.419 12.999 38.483 
104 1 1  3.260 12.817 37.001 
105 1 1  1.242 12.861 35.483 
106 1 1 -0.884 12.785 33.910 
107 1 1 50.673 12.758 32.382 
108 1 1 50.280 13.097 29.823 
109 1 1 49.741 13.534 27.231 
110 1 1 48.668 11.842 25.664 
111 1 1 48.509  9.703 24.823 
112 1 1 50.356  9.079 23.061 
113 1 1 -0.869  8.167 23.574 
114 1 1  1.336  7.282 24.291 
115 1 1  3.789  6.698 24.859 
116 1 1  5.699  5.547 23.369 
117 1 1  6.412  4.622 21.373 
118 1 1  5.251 44.230 20.736 
119 1 1  5.165 43.136 18.432 
120 1 1  4.941 42.129 16.052 
121 1 1  4.507 41.156 13.685 
122 1 1  2.358 41.358 12.483 
123 1 1  0.413 42.422 11.528 
124 1 1  0.985 44.652 10.263 
125 1 1  1.393  5.258 11.095 
126 1 1  2.078  7.169 12.297 
127 1 1  4.003  8.472 13.365 
128 1 1  6.007  9.628 14.376 
129 2 1 31.512 23.077 22.442 
130 2 1 31.217 25.106 23.955 
131 2 1 30.626 27.170 25.446 
132 2 1 29.657 29.166 26.694 
133 2 1 28.757 31.228 27.989 
134 2 1 27.987 33.259 29.350 
135 2 1 27.635 35.247 30.837 
136 2 1 27.582 37.311 32.532 
137 2 1 26.428 39.576 32.076 
138 2 1 25.435 41.891 31.343 
139 2 1 23.935 43.102 30.204 
140 2 1 21.971 43.475 28.591 
141 2 1 20.132 44.364 26.944 
142 2 1 18.076  3.379 25.907 
143 2 1 16.315  4.513 24.994 
144 2 1 15.231  6.219 23.425 
145 2 1 14.051  8.200 22.236 
146 2 1 15.076 10.015 20.752 
147 2 1 16.265 11.592 19.191 
148 2 1 17.957 12.767 18.018 
149 2 1 20.419 13.810 17.580 
150 2 1 22.479 13.293 16.055 
151 2 1 24.212 13.303 14.086 
152 2 1 26.787 13.220 13.928 
153 2 1 28.839 13.065 14.965 
154 2 1 30.915 13.147 15.810 
155 2 1 33.427 13.247 15.471 
156 2 1 35.609 12.917 16.261 
157 2 1 36.181 14.719 18.095 
158 2 1 36.665 16.609 19.634 
159 2 1 37.500 18.488 21.158 
160 2 1 37.841 20.604 22.168 
161 2 1 38.464 22.651 23.066 
162 2 1 39.591 24.598 24.089 
163 2 1 40.670 26.781 24.807 
164 2 1 41.831 28.553 24.113 
165 2 1 42.981 29.673 22.165 
166 2 1 44.471 30.858 20.458 
167 2 1 46.422 31.906 19.136 
168 2 1 48.529 30.617 18.392 
169 2 1 50.628 29.206 17.713 
170 2 1 -1.436 27.559 17.946 
171 2 1 -0.349 25.484 18.821 
172 2 1 -0.846 22.991 18.834 
173 2 1 -0.514 20.767 18.161 
174 2 1  0.137 18.709 16.934 
175 2 1 -0.859 17.076 18.289 
176 2 1 -2.336 15.364 16.924 
177 2 1 50.035 13.545 15.502 
178 2 1 48.994 11.799 13.779 
179 2 1 48.233 10.087 12.010 
180 2 1 47.545  8.171 10.419 
181 2 1 46.734  6.412  8.849 
182 2 1 45.771  4.669  7.271 
183 2 1 46.431 44.606  5.812 
184 2 1 47.759 42.955  4.476 
185 2 1 49.048 41.540  2.746 
186 2 1 50.180 39.552  2.329 
187 2 1 50.614 36.972  2.653 
188 2 1 50.878 34.420  2.675 
189 2 1 51.128 31.945  2.449 
190 2 1 -2.890 29.659  2.076 
191 2 1 48.893 28.687  3.635 
192 2 1 47.042 27.911  5.257 
193 2 1 45.990 28.199  7.176 
194 2 1 46.126 28.932  9.348 
195 2 1 44.041 28.431 10.727 
196 2 1 42.016 28.754 11.883 
197 2 1 40.099 30.161 12.917 
198 2 1 38.206 31.944 13.188 
199 2 1 36.058 32.680 13.309 
200 2 1 33.522 32.188 13.066 
201 2 1 31.085 31.577 12.531 
202 2 1 28.739 30.674 11.714 
203 2 1 26.174 30.185 11.449 
204 2 1 23.695 29.458 11.094 
205 2 1 21.587 29.512 10.088 
206 2 1 19.814 30.109  8.303 
207 3 1 21.957 42.254 19.379 
208 3 1 24.268 42.930 20.370 
209 3 1 26.715 43.938 20.439 
210 3 1 28.770 44.489 19.306 
211 3 1 30.876 44.805 17.832 
212 3 1 33.006 45.185 16.653 
213 3 1 35.138  3.748 15.230 
214 3 1 35.469  5.586 13.893 
215 3 1 35.444  8.102 13.450 
216 3 1 34.928 10.053 12.365 
217 3 1 33.464 11.722 10.973 
218 3 1 31.948 13.533  9.706 
219 3 1 31.603 14.980  7.955 
220 3 1 32.475 16.327  5.955 
221 3 1 32.417 17.539  4.041 
222 3 1 31.608 18.865  2.013 
223 3 1 31.095 20.365  0.039 
224 3 1 30.312 22.426 -0.568 
225 3 1 27.759 22.851 -0.465 
226 3 1 26.090 22.817  1.417 
227 3 1 25.619 22.594  3.606 
228 3 1 27.074 24.101  5.243 
229 3 1 29.332 23.361  5.286 
230 3 1 31.700 22.842  4.375 
231 3 1 33.987 22.229  3.436 
232 3 1 34.781 22.945  1.128 
233 3 1 35.972 23.412 -1.104 
234 3 1 37.121 24.195 49.130 
235 3 1 36.807 25.033 47.002 
236 3 1 36.080 24.622 44.628 
237 3 1 35.606 23.579 42.281 
238 3 1 37.343 22.299 41.455 
239 3 1 39.310 23.055 42.471 
240 3 1 40.707 23.405 44.681 
241 3 1 40.879 21.624 46.489 
242 3 1 41.268 19.577 48.006 
243 3 1 41.634 17.435 49.344 
244 3 1 41.092 15.812 51.020 
245 3 1 39.284 14.749  0.135 
246 3 1 38.220 13.777  2.178 
247 3 1 37.083 13.005  4.351 
248 3 1 36.768 14.422  6.475 
249 3 1 36.647 15.687  8.607 
250 3 1 36.571 16.684 10.942 
251 3 1 36.340 17.235 13.447 
252 3 1 36.535 18.509 15.403 
253 3 1 37.074 20.529 16.897 
254 3 1 37.765 22.662 18.207 
255 3 1 36.106 24.287 18.171 
256 3 1 33.865 25.306 18.846 
257 3 1 32.356 27.107 19.670 
258 3 1 30.706 28.893 20.452 
259 3 1 28.796 30.272 21.486 
260 3 1 26.728 31.312 22.635 
261 3 1 24.879 32.587 23.955 
262 3 1 22.328 31.889 24.122 
263 3 1 19.858 31.287 24.112 
264 3 1 17.265 31.172 23.988 
265 3 1 14.746 30.940 24.041 
266 3 1 12.209 31.143 24.009 
267 3 1 10.097 30.303 24.723 
268 3 1  8.316 28.781 25.838 
269 3 1  6.470 27.184 26.785 
270 3 1  6.086 25.465 28.705 
271 3 1  5.809 23.489 30.447 
272 3 1  5.906 21.621 32.213 
273 3 1  4.286 21.374 34.123 
274 3 1  2.446 22.137 35.031 
275 3 1  0.583 23.800 35.328 
276 3 1 -1.157 25.681 35.628 
277 3 1 50.346 26.652 36.198 
278 3 1 47.997 25.849 35.285 
279 3 1 45.666 25.087 34.675 
280 3 1 43.371 23.985 34.157 
281 3 1 41.315 22.603 33.288 
282 3 1 39.393 21.297 32.192 
283 3 1 37.422 20.246 31.050 
284 3 1 36.210 17.991 31.170 
285 4 1 42.994 23.154 18.680 
286 4 1 42.597 21.107 17.265 
287 4 1 42.038 18.974 15.882 
288 4 1 41.479 17.733 13.972 
289 4 1 41.652 16.614 11.727 
290 4 1 42.029 15.239  9.596 
291 4 1 42.280 14.198  7.232 
292 4 1 42.392 13.055  4.875 
293 4 1 42.728 11.372  2.961 
294 4 1 43.657 11.341  0.678 
295 4 1 44.589 10.870 -1.679 
296 4 1 45.385 10.515 48.226 
297 4 1 46.388 10.609 45.904 
298 4 1 47.286 10.624 43.399 
299 4 1 49.310  9.577 42.140 
300 4 1 49.712  9.280 39.436 
301 4 1 49.323  9.683 37.091 
302 4 1 47.880 10.567 35.244 
303 4 1 46.627  9.208 33.339 
304 4 1 45.438  8.223 31.242 
305 4 1 44.852  9.526 29.428 
306 4 1 44.902 11.456 27.913 
307 4 1 45.155 13.498 28.950 
308 4 1 46.276 15.389 30.259 
309 4 1 47.555 17.463 31.248 
310 4 1 50.134 17.457 31.706 
311 4 1 51.688 17.818 33.723 
312 4 1 -0.372 18.064 35.818 
313 4 1  2.123 17.681 35.821 
314 4 1  4.558 16.962 36.511 
315 4 1  6.769 17.175 36.359 
316 4 1  8.759 18.155 35.223 
317 4 1 10.844 19.200 35.022 
318 4 1 12.977 19.869 36.161 
319 4 1 14.861 20.427 37.709 
320 4 1 16.486 20.637 39.729 
321 4 1 18.080 20.610 41.829 
322 4 1 19.598 20.504 43.863 
323 4 1 20.703 20.320 46.223 
324 4 1 20.975 19.341 48.356 
325 4 1 20.669 17.588 50.192 
326 4 1 20.254 16.062 -0.273 
327 4 1 19.820 14.434  1.550 
328 4 1 19.298 12.720  3.414 
329 4 1 17.557 10.834  3.270 
330 4 1 17.263  8.988  5.048 
331 4 1 17.090  7.445  7.141 
332 4 1 16.022  8.665  8.975 
333 4 1 14.389 10.413 10.029 
334 4 1 13.728 12.394 11.190 
335 4 1 13.647 14.992 10.811 
336 4 1 15.644 16.713 10.371 
337 4 1 17.370 18.445  9.631 
338 4 1 18.452 20.360 10.809 
339 4 1 19.150 21.837 12.631 
340 4 1 19.264 23.059 14.781 
341 4 1 19.211 24.051 17.212 
342 4 1 18.478 22.395 18.758 
343 4 1 18.369 20.102 19.735 
344 4 1 17.245 18.015 20.061 
345 4 1 15.417 16.283 20.051 
346 4 1 13.342 14.820 20.255 
347 4 1 11.230 13.351 20.294 
348 4 1  9.917 11.424 20.647 
349 4 1  9.363  9.368 19.279 
350 4 1  7.532  7.891 18.610 
351 4 1  5.735  6.751 17.526 
352 4 1  4.215  5.256 16.421 
353 4 1  1.913  3.942 16.248 
354 4 1 -0.088 44.312 15.813 
355 4 1 -1.741 42.453 14.860 
356 4 1 49.793 41.770 14.150 
357 4 1 47.189 41.742 13.673 
358 4 1 45.479 41.638 12.109 
359 4 1 44.348 41.622  9.726 
360 4 1 45.571 40.353  8.121 
361 4 1 46.864 38.354  7.198 
362 4 1 48.336 36.471  6.423 
363 5 1 44.821 26.473  0.965 
364 5 1 46.769 27.054 -0.687 
365 5 1 48.711 27.712 50.130 
366 5 1 51.238 27.462 -1.884 
367 5 1 -0.375 27.530 -0.747 
368 5 1  0.976 27.375  1.429 
369 5 1  1.919 27.254  3.758 
370 5 1  3.069 26.014  5.673 
371 5 1  4.381 24.825  7.557 
372 5 1  5.785 23.905  9.591 
373 5 1  7.459 23.434 11.447 
374 5 1  7.737 21.595 13.296 
375 5 1 10.055 21.615 13.718 
376 5 1 11.398 19.578 13.033 
377 5 1 10.569 17.868 11.788 
378 5 1  9.396 15.676 11.302 
379 5 1  7.821 13.673 11.274 
380 5 1  5.666 12.784 11.194 
381 5 1  3.175 12.782 10.815 
382 5 1  2.318 14.844  9.583 
383 5 1  1.782 17.164  8.436 
384 5 1  1.018 19.310  7.133 
385 5 1  0.244 21.270  5.738 
386 5 1 -1.189 23.041  4.586 
387 5 1 -2.504 23.744  2.901 
388 5 1 50.188 23.518  0.465 
389 5 1 50.046 22.979 -2.055 
390 5 1 50.833 22.988 48.158 
391 5 1 -1.968 24.491 46.595 
392 5 1 -1.292 25.852 44.881 
393 5 1 -0.195 26.470 42.587 
394 5 1  0.664 26.904 40.120 
395 5 1  1.159 28.346 38.429 
396 5 1  1.560 30.673 37.497 
397 5 1  1.817 32.949 36.514 
398 5 1  2.076 35.276 37.743 
399 5 1  2.395 36.670 39.606 
400 5 1  1.811 37.699 41.689 
401 5 1  0.264 38.855 43.423 
402 5 1 -1.197 39.890 45.321 
403 5 1 -2.506 41.394 46.976 
404 5 1 49.950 42.874 48.735 
405 5 1 48.707 44.094 50.510 
406 5 1 47.081 45.526 -0.294 
407 5 1 45.387  4.947  1.161 
408 5 1 45.138  6.623  2.699 
409 5 1 45.960  8.493  4.352 
410 5 1 46.482 10.369  5.944 
411 5 1 47.043 12.139  7.714 
412 5 1 47.583 13.561  9.720 
413 5 1 47.922 15.079 11.693 
414 5 1 47.147 16.841 13.111 
415 5 1 45.857 18.644 11.706 
416 5 1 44.851 19.450  9.684 
417 5 1 45.263 17.742  7.717 
418 5 1 45.824 16.262  5.722 
419 5 1 46.747 14.678  3.939 
420 5 1 47.148 14.700  1.428 
421 5 1 47.718 14.546 -1.077 
422 5 1 48.561 14.349 48.869 
423 5 1 50.226 12.490 48.153 
424 5 1 -1.490 10.796 47.467 
425 5 1 -1.154  8.855 45.838 
426 5 1 -0.953  7.391 43.744 
427 5 1 -0.718  6.266 41.465 
428 5 1 -0.680  5.159 39.121 
429 5 1 -0.273  3.790 36.935 
430 5 1  1.610  3.815 35.015 
431 5 1  3.510  3.422 33.296 
432 5 1  5.457 44.446 31.769 
433 5 1  6.497 42.336 30.687 
434 5 1  7.518 40.475 29.355 
435 5 1  8.867 38.725 27.972 
436 5 1 10.331 36.923 26.879 
437 5 1 12.132 35.470 26.815 
438 5 1 14.551 34.595 27.354 
439 5 1 16.841 33.765 27.921 
440 5 1 19.323 33.101 28.182 
441 6 1 20.711 38.738  0.532 
442 6 1 20.775 38.136  3.079 
443 6 1 20.376 38.403  5.675 
444 6 1 19.917 38.546  8.209 
445 6 1 20.752 40.415  9.647 
446 6 1 21.367 42.407 11.134 
447 6 1 23.580 43.125 11.216 
448 6 1 24.925 45.257 10.818 
449 6 1 26.553  5.301 10.363 
450 6 1 26.582  6.745  8.460 
451 6 1 26.658  8.185  6.560 
452 6 1 27.550  8.929  4.327 
453 6 1 28.573  9.856  2.115 
454 6 1 29.466 10.356 -0.147 
455 6 1 30.273 10.409 49.788 
456 6 1 31.006 10.485 47.405 
457 6 1 31.160 11.278 45.237 
458 6 1 31.101 12.759 43.208 
459 6 1 31.402 14.068 40.943 
460 6 1 31.596 15.248 38.705 
461 6 1 31.551 16.725 36.452 
462 6 1 31.570 17.968 34.127 
463 6 1 31.150 19.146 31.841 
464 6 1 32.707 20.896 30.519 
465 6 1 32.031 23.377 29.687 
466 6 1 31.538 25.665 29.756 
467 6 1 30.998 27.879 30.968 
468 6 1 30.186 29.968 32.417 
469 6 1 28.876 31.744 33.739 
470 6 1 27.443 33.418 35.093 
471 6 1 25.122 33.296 36.015 
472 6 1 23.454 34.599 34.408 
473 6 1 22.545 35.518 32.447 
474 6 1 22.441 36.882 30.240 
475 6 1 21.155 38.216 28.962 
476 6 1 18.986 39.097 27.870 
477 6 1 16.774 39.923 26.884 
478 6 1 14.707 40.870 25.436 
479 6 1 13.369 42.508 23.957 
480 6 1 12.696 44.705 22.634 
481 6 1 11.356  4.671 21.252 
482 6 1 10.372  4.153 18.979 
483 6 1  9.215 45.382 16.857 
484 6 1  8.010 44.784 14.732 
485 6 1  7.312  4.485 12.666 
486 6 1  6.283  5.865 10.611 
487 6 1  5.477  7.421  8.697 
488 6 1  4.664  9.411  7.397 
489 6 1  3.593 11.406  6.141 
490 6 1  3.579 12.822  4.248 
491 6 1  4.176 11.539  2.012 
492 6 1  4.357 10.384 -0.257 
493 6 1  4.325  9.447 49.676 
494 6 1  3.935  8.339 47.395 
495 6 1  3.531  7.038 45.227 
496 6 1  3.404  5.885 42.962 
497 6 1  3.950  4.527 40.784 
498 6 1  4.933 44.959 38.768 
499 6 1  6.296 43.553 37.118 
500 6 1  7.879 42.172 35.629 
501 6 1  9.478 40.672 34.269 
502 6 1 10.289 38.692 33.074 
503 6 1  9.973 36.446 32.034 
504 6 1  9.310 34.198 30.911 
505 6 1  7.995 33.629 28.848 
506 6 1  6.752 33.377 26.611 
507 6 1  7.939 33.758 24.415 
508 6 1  8.783 34.083 21.937 
509 6 1  9.763 34.406 19.500 
510 6 1  8.872 33.467 17.302 
511 6 1  8.074 32.430 15.116 
512 6 1  6.873 30.966 13.701 
513 6 1  5.633 28.756 13.151 
514 6 1  3.763 27.365 13.134 
515 6 1  1.344 26.692 13.617 
516 6 1 -0.478 25.231 13.967 
517 6 1 -1.903 23.086 14.485 
518 6 1 49.768 22.083 14.299 
519 7 1 26.073 31.997 15.341 
520 7 1 28.547 31.931 16.158 
521 7 1 31.053 31.913 16.823 
522 7 1 33.630 32.131 17.050 
523 7 1 34.659 31.685 19.120 
524 7 1 35.060 31.828 21.768 
525 7 1 36.806 32.909 23.431 
526 7 1 37.423 32.279 25.808 
527 7 1 38.479 30.934 27.355 
528 7 1 39.345 29.670 29.067 
529 7 1 40.284 29.152 31.435 
530 7 1 40.458 27.962 33.410 
531 7 1 40.319 26.705 35.345 
532 7 1 40.485 26.516 37.852 
533 7 1 40.044 27.120 40.243 
534 7 1 39.509 27.834 42.634 
535 7 1 38.829 28.327 45.031 
536 7 1 37.818 28.984 47.284 
537 7 1 35.937 29.335 48.537 
538 7 1 34.619 27.461 49.751 
539 7 1 32.133 26.712 49.405 
540 7 1 29.741 26.159 48.768 
541 7 1 27.340 25.859 48.977 
542 7 1 26.174 27.643 50.115 
543 7 1 25.378 29.876 50.942 
544 7 1 24.620 32.142 -0.352 
545 7 1 25.538 33.462  1.713 
546 7 1 25.766 33.798  3.909 
547 7 1 27.515 32.141  4.718 
548 7 1 29.349 30.511  5.582 
549 7 1 31.099 28.723  6.074 
550 7 1 33.048 27.143  6.211 
551 7 1 35.173 25.794  6.613 
552 7 1 37.079 24.804  5.918 
553 7 1 38.840 23.729  4.323 
554 7 1 40.859 22.776  4.088 
555 7 1 43.243 22.131  4.833 
556 7 1 45.601 22.115  4.897 
557 7 1 47.084 23.082  6.408 
558 7 1 49.159 22.989  8.078 
559 7 1 50.092 21.106  9.492 
560 7 1 51.258 19.228 10.809 
561 7 1 -1.016 17.453 12.195 
562 7 1  0.323 15.594 13.380 
563 7 1  1.251 13.735 14.904 
564 7 1  3.604 13.763 15.768 
565 7 1  4.864 13.495 17.950 
566 7 1  6.167 15.377 19.171 
567 7 1  7.580 15.400 21.418 
568 7 1  7.449 15.512 23.830 
569 7 1  6.527 14.974 26.218 
570 7 1  4.600 13.578 27.059 
571 7 1  2.793 12.095 28.055 
572 7 1  0.704 10.780 28.739 
573 7 1 -1.163  9.323 28.803 
574 7 1 -3.065  7.771 28.263 
575 7 1 48.212  6.690 27.625 
576 7 1 45.837  5.798 26.965 
577 7 1 43.244  5.588 26.523 
578 7 1 40.724  5.661 26.260 
579 7 1 38.495  6.211 26.715 
580 7 1 36.469  6.759 28.140 
581 7 1 34.284  6.904 28.527 
582 7 1 32.001  7.537 28.675 
583 7 1 29.868  8.739 29.472 
584 7 1 27.818 10.227 30.014 
585 7 1 26.143 12.214 30.076 
586 7 1 24.991 14.485 29.882 
587 7 1 22.839 15.099 31.126 
588 7 1 20.858 15.531 32.675 
589 7 1 18.729 16.018 33.998 
590 7 1 17.201 16.596 36.010 
591 7 1 16.914 16.493 38.283 
592 7 1 17.723 15.656 40.500 
593 7 1 18.728 15.097 42.758 
594 7 1 19.494 14.278 44.996 
595 7 1 20.155 13.129 47.239 
596 7 1 20.655 11.757 49.411 
597 8 1 21.366  5.295 22.409 
598 8 1 19.576  3.787 21.467 
599 8 1 17.611 44.252 20.563 
600 8 1 15.644 43.218 19.306 
601 8 1 13.848 41.982 18.016 
602 8 1 12.222 41.595 16.268 
603 8 1 11.585 41.749 13.690 
604 8 1 10.940 41.877 11.234 
605 8 1  9.335 43.539 10.199 
606 8 1 10.155 45.563  8.934 
607 8 1 11.168  5.761  7.625 
608 8 1 12.561  7.550  6.308 
609 8 1 12.989  7.926  3.773 
610 8 1 13.159  8.109  1.210 
611 8 1 14.414  9.999 -0.018 
612 8 1 15.502 11.999 -1.163 
613 8 1 16.020 12.367 48.738 
614 8 1 16.408 11.968 46.548 
615 8 1 17.194 10.322 44.732 
616 8 1 19.376  9.580 44.313 
617 8 1 21.745  9.419 43.144 
618 8 1 23.207 11.282 42.254 
619 8 1 24.654 13.093 41.278 
620 8 1 26.212 14.651 41.250 
621 8 1 27.580 16.404 41.706 
622 8 1 28.396 18.564 42.245 
623 8 1 27.600 20.492 41.264 
624 8 1 26.200 21.651 39.406 
625 8 1 24.709 22.656 37.485 
626 8 1 23.206 23.826 35.716 
627 8 1 21.609 24.926 34.073 
628 8 1 22.363 24.712 31.775 
629 8 1 22.848 23.891 29.401 
630 8 1 22.962 23.043 27.039 
631 8 1 23.115 22.208 24.634 
632 8 1 22.943 21.265 22.187 
633 8 1 22.661 18.784 21.507 
634 8 1 22.475 16.446 21.633 
635 8 1 22.437 14.219 22.864 
636 8 1 22.425 12.208 24.541 
637 8 1 21.592 12.665 26.752 
638 8 1 19.707 13.744 28.011 
639 8 1 17.767 14.767 29.304 
640 8 1 16.199 16.409 29.609 
641 8 1 14.686 18.338 29.046 
642 8 1 13.478 20.399 28.312 
643 8 1 12.234 22.418 27.364 
644 8 1 11.245 24.601 26.545 
645 8 1  9.726 24.514 24.462 
646 8 1  8.291 24.942 22.289 
647 8 1  8.547 23.904 19.979 
648 8 1  8.964 24.729 17.588 
649 8 1  9.619 26.273 16.037 
650 8 1 10.821 28.418 15.411 
651 8 1 12.157 30.576 14.797 
652 8 1 13.873 32.252 14.162 
653 8 1 15.928 33.653 13.552 
654 8 1 18.027 34.900 12.702 
655 8 1 18.884 37.380 13.028 
656 8 1 21.011 38.251 14.224 
657 8 1 23.507 38.887 14.700 
658 8 1 25.987 39.471 15.177 
659 8 1 28.543 39.893 15.379 
660 8 1 29.827 41.293 13.645 
661 8 1 32.375 41.118 13.149 
662 8 1 34.903 41.225 12.856 
663 8 1 37.226 41.814 11.826 
664 8 1 39.170 42.672 10.431 
665 8 1 41.073 44.298 10.500 
666 8 1 42.843 45.902 11.091 
667 8 1 44.434  5.139 12.713 
668 8 1 45.918  6.540 14.147 
669 8 1 44.943  7.848 16.096 
670 8 1 46.335  9.519 17.206 
671 8 1 48.493 10.349 18.285 
672 8 1 50.702 11.206 19.167 
673 8 1 -0.790 12.262 20.138 
674 8 1  1.459 13.371 20.872 
675 9 1  0.105 16.174 28.464 
676 9 1  1.327 17.042 30.543 
677 9 1  3.678 16.156 31.189 
678 9 1  6.020 17.426 31.022 
679 9 1  8.244 16.704 30.870 
680 9 1 10.308 15.706 30.645 
681 9 1 12.419 14.751 31.681 
682 9 1 14.553 13.653 32.854 
683 9 1 16.154 12.103 33.173 
684 9 1 17.860 10.420 33.227 
685 9 1 20.263 10.822 32.598 
686 9 1 21.990 10.336 31.192 
687 9 1 22.749  9.390 28.951 
688 9 1 22.673  7.001 28.114 
689 9 1 23.670  4.857 27.990 
690 9 1 25.855  4.750 29.383 
691 9 1 27.873  4.472 30.846 
692 9 1 29.770  4.236 32.534 
693 9 1 31.866  4.268 34.159 
694 9 1 34.291  5.049 33.966 
695 9 1 35.623  6.934 33.656 
696 9 1 36.365  9.235 32.739 
697 9 1 37.607 11.353 32.502 
698 9 1 39.124 13.117 32.189 
699 9 1 40.456 14.941 31.077 
700 9 1 41.910 16.949 30.407 
701 9 1 43.452 18.985 30.182 
702 9 1 44.999 21.081 29.630 
703 9 1 46.664 23.117 29.728 
704 9 1 48.481 24.813 29.694 
705 9 1 50.575 26.288 29.593 
706 9 1 -0.844 26.865 30.291 
707 9 1  1.251 27.082 31.814 
708 9 1  3.533 27.470 32.908 
709 9 1  4.344 26.686 35.246 
710 9 1  4.807 26.136 37.708 
711 9 1  5.354 26.244 40.218 
712 9 1  5.604 26.435 42.754 
713 9 1  4.831 26.042 44.882 
714 9 1  3.589 24.870 46.756 
715 9 1  2.466 24.027 48.888 
716 9 1  1.083 23.405 -1.347 
717 9 1  1.526 21.711  0.138 
718 9 1  1.945 19.997  1.499 
719 9 1  1.521 18.113  2.703 
720 9 1  0.099 16.126  3.347 
721 9 1 -1.237 14.020  3.975 
722 9 1 -2.442 12.062  5.055 
723 9 1 50.360  9.887  5.026 
724 9 1 50.126  7.531  3.917 
725 9 1 49.988  5.142  2.781 
726 9 1 -2.156  3.288  1.821 
727 9 1 -0.437 43.543  0.768 
728 9 1  1.416 42.394 -0.481 
729 9 1  2.922 40.954 -2.083 
730 9 1  2.646 40.198 47.814 
731 9 1  3.973 38.550 46.390 
732 9 1  5.354 37.020 44.982 
733 9 1  6.698 35.448 43.373 
734 9 1  5.655 34.489 41.265 
735 9 1  6.157 32.049 40.735 
736 9 1  6.138 30.885 38.454 
737 9 1  5.870 30.875 36.220 
738 9 1  5.341 32.006 33.991 
739 9 1  5.162 34.507 33.449 
740 9 1  4.882 35.957 31.378 
741 9 1  3.881 37.067 29.459 
742 9 1  1.276 36.864 29.755 
743 9 1 -0.803 36.579 30.749 
744 9 1 -2.572 36.505 32.616 
745 9 1 -2.314 36.429 35.129 
746 9 1 -2.114 36.317 37.654 
747 9 1 50.653 37.919 39.621 
748 9 1 49.608 39.340 41.451 
749 9 1 48.193 40.728 43.053 
750 9 1 46.830 41.869 44.905 
751 9 1 45.435 43.090 46.630 
752 9 1 44.157 44.620 48.240 
753 10 1 17.903 25.890  7.735 
754 10 1 15.589 26.638  7.146 
755 10 1 13.144 27.224  6.656 
756 10 1 12.017 28.804  5.043 
757 10 1 11.267 30.892  4.466 
758 10 1 11.142 33.515  4.779 
759 10 1 11.125 36.052  5.045 
760 10 1 10.319 38.487  5.223 
761 10 1  9.415 40.863  5.141 
762 10 1  8.763 43.300  4.752 
763 10 1  8.260 45.790  4.510 
764 10 1  8.038  6.437  4.965 
765 10 1  8.491  8.544  4.098 
766 10 1  9.176 10.158  2.228 
767 10 1  9.693 12.177  1.087 
768 10 1 10.067 14.558  0.530 
769 10 1 10.385 17.078  0.026 
770 10 1 10.448 18.990 -1.269 
771 10 1 10.738 20.000 48.787 
772 10 1 11.716 21.304 47.078 
773 10 1 13.310 23.102 45.996 
774 10 1 14.716 24.820 44.661 
775 10 1 17.234 25.050 44.188 
776 10 1 19.444 24.942 44.959 
777 10 1 21.406 24.633 46.477 
778 10 1 21.516 24.410 49.068 
779 10 1 21.102 23.275 -1.251 
780 10 1 19.919 21.550  0.361 
781 10 1 18.835 19.876  1.945 
782 10 1 18.240 18.397  3.912 
783 10 1 16.859 17.715  5.412 
784 10 1 14.400 17.657  6.324 
785 10 1 12.070 17.990  7.489 
786 10 1 10.602 18.885  5.703 
787 10 1 10.117 20.170  3.960 
788 10 1 10.352 22.208  2.359 
789 10 1 10.775 24.008  0.670 
790 10 1 12.340 26.100  1.018 
791 10 1 13.634 28.299  1.016 
792 10 1 15.600 29.759  1.384 
793 10 1 17.314 28.149  2.400 
794 10 1 18.764 26.184  3.069 
795 10 1 20.109 24.162  3.689 
796 10 1 21.038 22.222  5.016 
797 10 1 21.705 20.368  6.628 
798 10 1 22.874 20.779  8.825 
799 10 1 24.107 21.613 10.844 
800 10 1 25.311 22.460 12.985 
801 10 1 27.659 22.176 13.998 
802 10 1 29.921 22.507 15.121 
803 10 1 32.150 21.775 15.684 
804 10 1 32.279 19.365 16.478 
805 10 1 31.982 17.677 17.897 
806 10 1 31.200 16.696 20.064 
807 10 1 31.518 15.867 22.184 
808 10 1 32.878 16.949 23.680 
809 10 1 33.819 18.974 25.010 
810 10 1 34.847 21.032 26.050 
811 10 1 35.743 23.265 26.930 
812 10 1 36.348 24.960 28.656 
813 10 1 36.781 25.994 31.033 
814 10 1 36.200 25.574 33.447 
815 10 1 35.625 25.586 36.007 
816 10 1 34.586 25.582 38.436 
817 10 1 32.240 25.527 39.451 
818 10 1 29.955 25.455 40.625 
819 10 1 27.556 25.507 41.637 
820 10 1 26.673 26.857 43.476 
821 10 1 26.509 28.389 45.217 
822 10 1 27.049 30.455 46.720 
823 10 1 27.293 32.925 46.290 
824 10 1 29.202 34.508 45.282 
825 10 1 30.802 35.832 43.833 
826 10 1 32.306 37.138 42.216 
827 10 1 33.899 38.304 40.636 
828 10 1 36.034 39.442 41.395 
829 10 1 38.281 40.470 41.777 
830 10 1 40.692 41.384 42.131 
831 11 1 13.138 13.558 39.179 
832 11 1 11.764 14.617 37.257 
833 11 1 10.691 13.134 35.471 
834 11 1  8.200 13.030 34.625 
835 11 1  5.806 12.459 33.868 
836 11 1  4.901 10.263 32.976 
837 11 1  3.776  8.084 32.019 
838 11 1  3.258  7.358 29.548 
839 11 1  1.236  5.869 28.749 
840 11 1 -0.677  4.589 27.674 
841 11 1 -2.458 45.114 26.336 
842 11 1 49.870  4.084 24.278 
843 11 1 48.113  4.920 22.968 
844 11 1 46.442  6.423 22.414 
845 11 1 44.861  8.226 21.867 
846 11 1 43.242  9.253 23.607 
847 11 1 41.569 10.243 25.203 
848 11 1 40.816 10.906 27.376 
849 11 1 40.252  9.267 29.304 
850 11 1 39.920  7.809 31.454 
851 11 1 40.087  6.287 33.569 
852 11 1 39.241  4.699 35.025 
853 11 1 38.522 44.842 36.299 
854 11 1 37.911 43.488 38.247 
855 11 1 35.532 42.591 37.957 
856 11 1 33.617 42.063 36.608 
857 11 1 31.999 41.319 35.004 
858 11 1 29.578 42.334 35.165 
859 11 1 27.093 43.090 34.796 
860 11 1 24.770 44.241 34.967 
861 11 1 22.879 44.053 36.691 
862 11 1 20.854 43.940 38.303 
863 11 1 18.683 42.544 38.215 
864 11 1 16.322 41.564 37.673 
865 11 1 13.869 40.823 37.272 
866 11 1 12.151 39.729 38.283 
867 11 1 11.105 38.125 40.038 
868 11 1 10.368 38.605 42.234 
869 11 1  8.979 39.665 44.223 
870 11 1  8.136 40.755 46.458 
871 11 1  7.574 42.010 48.662 
872 11 1  7.178 43.240 50.837 
873 11 1  6.375 42.296  0.596 
874 11 1  5.865 40.756  2.268 
875 11 1  5.349 38.277  2.998 
876 11 1  5.382 36.367  4.325 
877 11 1  6.199 34.560  5.859 
878 11 1  6.853 32.634  7.336 
879 11 1  7.819 30.715  8.795 
880 11 1  8.750 28.839 10.294 
881 11 1 10.994 28.070 11.160 
882 11 1 11.240 25.718 10.823 
883 11 1 10.245 23.992  9.473 
884 11 1 10.395 24.511  6.925 
885 11 1  8.440 25.221  5.367 
886 11 1  7.068 26.897  4.583 
887 11 1  6.596 28.785  3.330 
888 11 1  5.891 30.438  1.976 
889 11 1  4.141 32.204  1.167 
890 11 1  2.102 32.332 -0.427 
891 11 1 -0.129 32.635 -1.769 
892 11 1 -2.626 33.087 49.768 
893 11 1 48.585 33.737 49.044 
894 11 1 47.332 33.904 -1.335 
895 11 1 46.382 33.107  0.917 
896 11 1 45.027 30.846  1.156 
897 11 1 44.180 30.768  3.409 
898 11 1 43.707 31.855  5.731 
899 11 1 43.415 33.356  7.768 
900 11 1 45.414 33.963  9.216 
901 11 1 45.433 35.964 10.806 
902 11 1 47.138 36.376 12.710 
903 11 1 48.638 36.525 14.797 
904 11 1 49.224 38.247 16.623 
905 11 1 50.099 39.857 18.447 
906 11 1 49.978 40.922 20.483 
907 11 1 49.033 41.239 22.837 
908 11 1 48.061 41.675 25.146 
909 12 1 10.223 15.738 46.083 
910 12 1  7.763 16.219 45.902 
911 12 1  5.791 16.441 44.698 
912 12 1  4.189 16.253 42.615 
913 12 1  2.417 16.717 41.195 
914 12 1  0.082 17.494 40.606 
915 12 1 -2.214 17.988 39.718 
916 12 1 49.042 18.518 38.709 
917 12 1 46.832 19.545 37.793 
918 12 1 44.387 18.839 38.309 
919 12 1 42.054 17.979 38.850 
920 12 1 39.608 17.655 39.528 
921 12 1 37.112 17.633 40.103 
922 12 1 34.683 17.835 40.790 
923 12 1 33.022 19.840 40.236 
924 12 1 31.422 20.715 38.784 
925 12 1 29.459 20.824 37.081 
926 12 1 27.901 18.997 36.574 
927 12 1 25.959 17.363 36.674 
928 12 1 23.899 15.831 37.068 
929 12 1 21.914 14.297 37.498 
930 12 1 20.339 12.393 38.348 
931 12 1 18.161 11.142 37.385 
932 12 1 16.400  9.864 38.799 
933 12 1 14.972  8.386 40.322 
934 12 1 13.796  7.842 42.244 
935 12 1 12.532  9.874 43.293 
936 12 1 10.784 10.991 44.274 
937 12 1  8.222 11.278 44.756 
938 12 1  5.803 11.756 45.298 
939 12 1  3.441 12.385 46.044 
940 12 1  1.379 13.319 45.940 
941 12 1 -0.504 14.716 44.920 
942 12 1 -2.686 15.901 44.190 
943 12 1 48.964 15.100 42.678 
944 12 1 47.044 14.435 41.085 
945 12 1 45.398 13.496 39.399 
946 12 1 43.704 12.608 37.734 
947 12 1 42.207 11.714 35.785 
948 12 1 41.486  9.528 36.048 
949 12 1 39.063  9.772 37.091 
950 12 1 37.372  8.033 37.920 
951 12 1 35.882  5.941 38.347 
952 12 1 33.284  5.457 38.344 
953 12 1 30.873  4.731 38.154 
954 12 1 28.486  4.638 37.944 
955 12 1 25.979  5.236 38.182 
956 12 1 25.349  3.735 39.923 
957 12 1 25.215 43.289 41.029 
958 12 1 24.212 41.469 42.087 
959 12 1 22.357 39.858 42.782 
960 12 1 20.763 38.579 41.206 
961 12 1 19.879 37.640 39.268 
962 12 1 19.140 37.511 36.862 
963 12 1 18.097 37.459 34.485 
964 12 1 17.195 37.139 32.136 
965 12 1 15.118 38.236 31.010 
966 12 1 13.425 39.733 30.293 
967 12 1 11.970 41.854 29.945 
968 12 1 12.761 44.159 29.081 
969 12 1 13.407  4.486 28.005 
970 12 1 11.948  6.133 26.675 
971 12 1 10.396  7.818 25.483 
972 12 1  8.677  9.328 24.265 
973 12 1  6.668 10.570 23.209 
974 12 1  4.994 10.756 21.538 
975 12 1  3.281  9.825 19.812 
976 12 1  1.608  9.417 18.011 
977 12 1 -0.048  8.886 16.178 
978 12 1 -2.043  8.579 14.590 
979 12 1 -2.955  6.355 13.676 
980 12 1 49.700  4.212 12.539 
981 12 1 49.611  3.568  9.994 
982 12 1 49.452 43.166  9.235 
983 12 1 50.601 40.928  8.669 
984 12 1 -1.634 38.765  7.965 
985 12 1 -0.485 36.638  7.021 
986 12 1  0.661 34.422  6.228 