LAMMPS data file generated by aa2cg.

2000 atoms
1 atom types
1975 bonds
1 bond types
1950 angles
1 angle types
1925 dihedrals
1 dihedral types

 0.000 53.559 xlo xhi
 0.000 46.005 ylo yhi
 0.000 46.829 zlo zhi

Masses

1 24.022

Atoms # molecular

1 1 1 17.085 34.501 26.523 
2 1 1 22.976 34.948 33.250 
3 2 1 26.589 42.486  3.084 
4 2 1 46.536 20.165 35.550 
5 3 1 31.236 23.961 17.307 
6 3 1 48.460 16.842  6.831 
7 4 1 42.591 30.380  4.174 
8 4 1  1.340 41.651 36.833 
9 5 1 34.318  6.723 39.699 
10 5 1 11.277 29.682 46.863 
11 6 1 42.119  9.503 41.065 
12 6 1 47.146 31.352 11.831 
13 7 1 32.836 13.687  5.283 
14 7 1 26.739  5.864 32.824 
15 8 1 46.436  7.794 43.286 
16 8 1 25.916 31.149 34.661 
17 9 1 27.581  3.971 21.949 
18 9 1 32.271 19.039 43.221 
19 10 1 47.819  2.057 35.412 
20 10 1  2.671 35.127 14.885 
21 11 1 19.126 37.230 20.481 
22 11 1 13.107 47.169 39.852 
23 12 1  8.682 46.974 28.639 
24 12 1  5.251 41.560 14.353 
25 13 1 -0.544  7.142 22.452 
26 13 1 32.342 45.622 11.047 
27 14 1 -0.335 32.790 20.598 
28 14 1 36.776 37.355  7.444 
29 15 1 42.273 18.521 22.703 
30 15 1 20.821 30.011 43.807 
31 16 1  2.120 10.817  9.701 
32 16 1 24.416 33.365 43.689 
33 17 1 14.394 11.161 33.297 
34 17 1 51.050 17.015 17.166 
35 18 1  2.917 19.964  9.614 
36 18 1  9.034 40.997 42.004 
37 19 1 26.339 37.183 30.977 
38 19 1  8.571  5.504  7.835 
39 20 1 19.571 22.826  9.600 
40 20 1 49.478 28.054 30.452 
41 21 1 11.541  2.602 33.938 
42 21 1 43.214  7.161 35.874 
43 22 1 37.981  7.390 42.186 
44 22 1 20.027 23.432 40.098 
45 23 1 46.424 43.467  7.787 
46 23 1 39.396 10.735 38.473 
47 24 1 -0.088 37.179  5.254 
48 24 1 12.177 37.132 26.716 
49 25 1 28.739 10.949 38.247 
50 25 1 16.383 26.467  9.905 
51 1 1 19.021 36.090 25.764 
52 1 1 18.655 38.553 25.334 
53 1 1 18.976 41.102 25.433 
54 1 1 19.346 43.593 25.644 
55 1 1 19.483 45.537 26.818 
56 1 1 19.526 46.838 28.983 
57 1 1 20.063  2.319 31.016 
58 1 1 20.601  3.828 32.980 
59 1 1 20.823  2.850 35.075 
60 1 1 20.617  4.425 36.562 
61 1 1 21.389  6.685 37.431 
62 1 1 23.212  8.363 36.487 
63 1 1 24.822  9.964 35.315 
64 1 1 26.396 11.654 34.250 
65 1 1 28.178 13.036 33.080 
66 1 1 30.106 14.335 32.029 
67 1 1 32.520 15.066 32.692 
68 1 1 34.654 16.253 33.396 
69 1 1 36.308 17.516 31.966 
70 1 1 38.341 18.543 30.860 
71 1 1 40.106 18.816 29.195 
72 1 1 42.077 19.010 28.125 
73 1 1 44.224 18.469 29.467 
74 1 1 46.546 18.042 30.474 
75 1 1 48.087 17.051 31.908 
76 1 1 48.805 15.536 33.844 
77 1 1 49.519 14.146 35.952 
78 1 1 50.888 13.261 37.713 
79 1 1 -0.645 13.382 39.358 
80 1 1  1.417 13.809 40.928 
81 1 1  3.079 14.403 42.780 
82 1 1  4.339 14.145 44.791 
83 1 1  3.435 14.339 46.835 
84 1 1  3.010 15.469  2.269 
85 1 1  1.546 16.200  3.984 
86 1 1  0.318 16.816  5.778 
87 1 1 -0.095 16.867  8.145 
88 1 1 -1.111 16.757 10.281 
89 1 1 50.903 16.643 11.909 
90 1 1 49.716 15.101 13.747 
91 1 1 47.943 14.064 14.803 
92 1 1 46.657 12.432 13.193 
93 1 1 45.353 13.053 11.114 
94 1 1 44.143 13.120  8.909 
95 1 1 43.805 13.349  6.658 
96 1 1 43.093 15.531  5.481 
97 1 1 42.021 17.317  4.058 
98 1 1 42.170 17.535  1.543 
99 1 1 42.437 17.663 45.761 
100 1 1 43.712 19.035 44.020 
101 1 1 44.961 20.467 42.294 
102 1 1 46.893 21.191 41.086 
103 1 1 49.432 21.409 40.394 
104 1 1 51.693 22.139 39.328 
105 1 1 -0.097 22.449 37.635 
106 1 1  1.828 20.829 37.274 
107 1 1  3.484 19.290 38.005 
108 1 1  4.728 17.715 39.256 
109 1 1  4.576 16.074 37.483 
110 1 1  3.730 14.289 35.793 
111 1 1  1.597 14.083 34.230 
112 1 1  0.327 14.756 32.350 
113 1 1 -0.504 16.399 30.538 
114 1 1 -1.555 18.144 28.886 
115 1 1 50.973 19.874 27.383 
116 1 1 50.335 22.333 26.288 
117 1 1 -1.475 23.019 24.979 
118 1 1  0.718 22.753 24.143 
119 1 1  3.229 22.688 24.239 
120 1 1  5.731 22.642 24.740 
121 1 1  7.883 23.627 25.620 
122 1 1  9.650 25.221 26.743 
123 1 1 10.997 27.178 27.635 
124 1 1 12.829 28.859 28.261 
125 1 1 14.677 30.424 29.101 
126 1 1 16.656 31.741 29.890 
127 1 1 18.993 32.739 30.667 
128 1 1 20.934 33.930 31.934 
129 2 1 24.245 43.272  3.382 
130 2 1 21.824 44.144  3.830 
131 2 1 20.496 45.936  4.430 
132 2 1 19.947  2.411  4.506 
133 2 1 19.401  4.328  5.569 
134 2 1 18.945  5.743  7.427 
135 2 1 17.822  6.432  9.536 
136 2 1 16.575  7.048 11.564 
137 2 1 15.425  5.556 13.312 
138 2 1 14.483  3.941 15.190 
139 2 1 14.941  3.704 17.810 
140 2 1 13.801  1.897 19.301 
141 2 1 12.828 45.973 20.546 
142 2 1 11.358 44.187 21.623 
143 2 1  9.253 44.678 22.988 
144 2 1  7.150 45.159 24.531 
145 2 1  5.019 45.451 25.874 
146 2 1  4.642 44.825 28.384 
147 2 1  4.431 44.258 30.807 
148 2 1  5.275 43.354 32.670 
149 2 1  6.994 41.986 34.032 
150 2 1  9.007 40.976 35.370 
151 2 1 10.237 39.246 36.479 
152 2 1 10.927 36.896 37.262 
153 2 1 11.348 34.817 38.867 
154 2 1 11.702 32.475 38.081 
155 2 1 12.307 30.049 37.406 
156 2 1 13.719 28.473 36.558 
157 2 1 15.145 26.919 35.551 
158 2 1 15.845 24.637 36.378 
159 2 1 16.597 22.236 36.904 
160 2 1 17.677 20.181 37.566 
161 2 1 20.293 20.420 37.246 
162 2 1 22.707 20.950 36.630 
163 2 1 25.160 21.313 35.831 
164 2 1 27.546 21.908 35.181 
165 2 1 29.709 22.906 34.242 
166 2 1 31.701 23.970 32.991 
167 2 1 33.601 25.233 31.762 
168 2 1 35.331 26.831 30.620 
169 2 1 36.777 28.713 29.588 
170 2 1 37.668 30.652 28.172 
171 2 1 38.498 32.818 27.009 
172 2 1 38.636 35.252 26.956 
173 2 1 39.147 37.558 27.995 
174 2 1 39.961 39.748 29.131 
175 2 1 39.168 41.653 30.656 
176 2 1 38.542 43.802 31.817 
177 2 1 38.030 45.826 33.317 
178 2 1 37.300 47.890 33.740 
179 2 1 39.185  3.563 32.835 
180 2 1 40.467  3.945 30.588 
181 2 1 42.008  3.993 28.426 
182 2 1 41.472  5.096 26.253 
183 2 1 41.294  3.369 24.355 
184 2 1 40.970  2.363 22.028 
185 2 1 40.569  1.432 19.752 
186 2 1 40.513 45.906 17.704 
187 2 1 40.537 44.692 15.508 
188 2 1 40.428 43.237 13.341 
189 2 1 41.182 41.677 11.715 
190 2 1 42.741 39.937 10.650 
191 2 1 44.016 39.215  8.803 
192 2 1 44.952 39.289  6.342 
193 2 1 46.675 40.274  4.693 
194 2 1 48.103 40.142  2.736 
195 2 1 49.244 38.783  0.912 
196 2 1 47.877 38.040 45.699 
197 2 1 46.531 37.001 43.738 
198 2 1 45.465 35.901 41.613 
199 2 1 46.800 35.008 39.544 
200 2 1 48.395 34.247 37.603 
201 2 1 50.378 33.321 36.264 
202 2 1 50.740 30.988 35.175 
203 2 1 -2.674 28.584 34.904 
204 2 1 50.167 26.128 35.080 
205 2 1 49.704 23.716 35.323 
206 2 1 48.855 21.312 35.688 
207 3 1 30.110 21.704 16.816 
208 3 1 29.084 19.569 15.850 
209 3 1 28.267 17.325 15.599 
210 3 1 27.607 15.025 16.233 
211 3 1 27.665 12.484 16.648 
212 3 1 27.885 10.020 16.793 
213 3 1 27.888  7.526 17.357 
214 3 1 27.581  5.067 17.696 
215 3 1 27.437  2.373 17.892 
216 3 1 27.036 45.860 17.747 
217 3 1 26.473 43.396 17.383 
218 3 1 25.363 41.065 17.140 
219 3 1 24.064 38.788 17.023 
220 3 1 23.793 36.577 16.292 
221 3 1 24.387 34.551 14.883 
222 3 1 25.194 34.245 12.398 
223 3 1 26.180 34.065 10.093 
224 3 1 27.378 33.781  7.957 
225 3 1 28.265 33.205  5.658 
226 3 1 29.308 32.507  3.328 
227 3 1 29.320 30.085  2.450 
228 3 1 29.553 27.546  2.207 
229 3 1 29.257 25.013  2.087 
230 3 1 28.791 22.471  2.225 
231 3 1 28.111 19.937  2.657 
232 3 1 27.289 17.591  2.659 
233 3 1 26.351 15.220  2.641 
234 3 1 25.511 13.229  1.363 
235 3 1 26.753 11.898 46.447 
236 3 1 28.089 10.472 44.715 
237 3 1 29.669  9.449 43.009 
238 3 1 29.623  7.175 42.090 
239 3 1 29.877  4.790 41.136 
240 3 1 30.068  2.607 39.874 
241 3 1 30.552 46.291 38.625 
242 3 1 29.183 44.998 36.845 
243 3 1 30.019 43.456 34.989 
244 3 1 30.308 41.914 32.892 
245 3 1 30.622 40.053 31.121 
246 3 1 31.007 37.984 29.693 
247 3 1 32.360 36.247 28.947 
248 3 1 33.578 34.437 28.558 
249 3 1 33.550 32.000 27.791 
250 3 1 33.418 29.713 26.637 
251 3 1 31.665 27.780 26.822 
252 3 1 31.932 25.548 28.051 
253 3 1 30.126 23.952 28.908 
254 3 1 28.131 22.658 29.751 
255 3 1 26.099 21.279 30.592 
256 3 1 23.986 19.872 31.054 
257 3 1 22.437 18.350 32.472 
258 3 1 20.763 17.040 33.894 
259 3 1 18.984 15.723 35.253 
260 3 1 17.056 15.442 36.471 
261 3 1 15.241 16.632 35.130 
262 3 1 13.529 17.966 33.691 
263 3 1 11.690 19.205 32.242 
264 3 1  9.714 20.137 30.895 
265 3 1  7.526 21.123 29.966 
266 3 1  7.230 23.195 30.760 
267 3 1  5.727 23.709 32.746 
268 3 1  4.260 24.594 34.739 
269 3 1  3.103 26.102 36.645 
270 3 1  3.510 25.822 39.192 
271 3 1  3.905 25.500 41.761 
272 3 1  4.605 24.364 43.602 
273 3 1  6.164 22.772 44.832 
274 3 1  6.801 21.367 46.552 
275 3 1  5.923 18.963 46.270 
276 3 1  4.301 18.947 44.747 
277 3 1  2.700 19.465 43.134 
278 3 1  0.297 19.399 42.075 
279 3 1 -1.982 18.488 42.812 
280 3 1 49.157 17.581 43.116 
281 3 1 47.722 16.217 44.376 
282 3 1 47.126 15.349 46.670 
283 3 1 47.131 15.251  2.187 
284 3 1 47.725 16.012  4.547 
285 4 1 45.194 30.618  4.036 
286 4 1 47.730 30.668  3.838 
287 4 1 50.286 30.641  3.443 
288 4 1 -1.561 31.228  5.270 
289 4 1  0.383 30.498  6.745 
290 4 1  2.495 29.604  7.851 
291 4 1  4.776 29.041  8.905 
292 4 1  7.140 28.013  9.569 
293 4 1  8.959 26.454 10.368 
294 4 1 11.030 25.084 10.962 
295 4 1 12.809 23.669 10.359 
296 4 1 13.970 21.610 10.139 
297 4 1 15.770 19.908 10.773 
298 4 1 16.647 17.771 11.141 
299 4 1 16.304 15.336 10.291 
300 4 1 16.236 12.865  9.507 
301 4 1 16.983 11.393  7.897 
302 4 1 18.221 10.653  5.773 
303 4 1 17.834 11.307  3.340 
304 4 1 17.611 12.110  0.845 
305 4 1 17.362 12.760 45.225 
306 4 1 17.099 13.062 42.718 
307 4 1 16.305 13.199 40.525 
308 4 1 14.774 12.881 38.457 
309 4 1 12.689 11.456 38.188 
310 4 1 11.285 11.209 36.057 
311 4 1  9.169  9.674 35.782 
312 4 1  6.910  8.535 35.063 
313 4 1  5.639  8.960 33.020 
314 4 1  4.048  9.967 31.405 
315 4 1  2.712 10.504 29.474 
316 4 1  1.806 10.128 27.032 
317 4 1  1.155 10.855 24.863 
318 4 1  2.527 12.217 23.178 
319 4 1  2.918 14.709 23.367 
320 4 1  3.185 16.737 24.478 
321 4 1  2.984 18.199 26.621 
322 4 1  2.429 19.640 28.722 
323 4 1  1.911 21.567 29.872 
324 4 1  1.537 24.083 30.089 
325 4 1  1.231 26.109 31.276 
326 4 1  1.633 27.800 32.780 
327 4 1  2.397 29.526 34.143 
328 4 1  2.251 31.326 35.917 
329 4 1  1.547 30.504 37.945 
330 4 1  0.809 29.149 39.600 
331 4 1 -1.183 27.673 40.384 
332 4 1 50.114 26.591 40.938 
333 4 1 47.653 26.164 41.497 
334 4 1 45.222 25.810 42.249 
335 4 1 42.796 25.569 42.959 
336 4 1 40.409 25.143 43.992 
337 4 1 38.166 24.582 45.227 
338 4 1 35.989 24.171 46.555 
339 4 1 34.459 22.792 47.781 
340 4 1 33.617 20.630  2.099 
341 4 1 32.808 18.361  3.217 
342 4 1 31.814 16.718  1.717 
343 4 1 30.454 15.498 46.767 
344 4 1 28.434 16.122 45.504 
345 4 1 26.907 17.366 44.229 
346 4 1 27.567 19.762 44.691 
347 4 1 28.574 22.157 44.556 
348 4 1 29.997 24.288 44.651 
349 4 1 31.396 26.546 44.992 
350 4 1 32.961 28.021 46.049 
351 4 1 34.998 28.964 46.514 
352 4 1 37.363 29.441 45.844 
353 4 1 39.724 29.690 44.762 
354 4 1 41.697 30.448 43.702 
355 4 1 43.817 31.091 42.882 
356 4 1 46.197 30.470 42.190 
357 4 1 48.454 30.792 41.575 
358 4 1 50.550 32.140 40.883 
359 4 1 -0.908 33.535 40.091 
360 4 1  0.687 35.057 38.745 
361 4 1  0.519 37.613 38.726 
362 4 1  0.467 40.227 38.812 
363 5 1 34.485  4.663 38.589 
364 5 1 34.928  2.139 38.205 
365 5 1 34.876 45.670 38.060 
366 5 1 34.802 43.806 36.661 
367 5 1 34.705 42.082 35.087 
368 5 1 35.426 40.173 33.450 
369 5 1 36.114 37.956 32.187 
370 5 1 36.945 35.556 31.432 
371 5 1 36.471 33.348 31.765 
372 5 1 34.595 31.686 32.145 
373 5 1 32.453 30.254 32.128 
374 5 1 30.212 29.077 31.605 
375 5 1 28.037 27.922 30.823 
376 5 1 25.969 26.570 30.064 
377 5 1 23.872 25.188 29.931 
378 5 1 21.769 23.818 29.717 
379 5 1 20.829 21.875 29.238 
380 5 1 20.835 19.377 28.320 
381 5 1 20.773 16.880 27.648 
382 5 1 21.264 15.805 25.365 
383 5 1 22.402 14.990 23.146 
384 5 1 24.186 15.191 21.635 
385 5 1 26.041 16.640 20.672 
386 5 1 27.547 18.193 22.138 
387 5 1 28.057 20.114 20.988 
388 5 1 27.410 22.369 19.828 
389 5 1 25.602 24.028 20.396 
390 5 1 23.830 25.825 20.963 
391 5 1 23.760 28.203 20.741 
392 5 1 22.891 29.631 22.605 
393 5 1 21.219 30.954 23.526 
394 5 1 18.769 31.915 23.644 
395 5 1 17.666 33.609 21.908 
396 5 1 15.241 34.497 21.940 
397 5 1 13.028 35.823 22.041 
398 5 1 10.868 35.661 20.604 
399 5 1  9.047 36.622 21.519 
400 5 1  7.462 36.966 23.578 
401 5 1  7.353 36.189 26.079 
402 5 1  5.015 35.896 27.281 
403 5 1  2.737 35.980 28.659 
404 5 1  0.419 36.209 29.645 
405 5 1 -1.728 35.393 29.815 
406 5 1 -1.878 32.994 30.963 
407 5 1 -0.050 31.832 30.383 
408 5 1  2.475 31.981 29.989 
409 5 1  5.088 32.030 29.551 
410 5 1  7.439 31.880 28.638 
411 5 1  8.962 31.823 26.924 
412 5 1  9.618 32.012 24.412 
413 5 1 11.031 31.557 22.691 
414 5 1 12.540 30.222 21.419 
415 5 1 12.786 27.896 22.421 
416 5 1 11.734 25.500 21.927 
417 5 1 10.164 23.514 22.017 
418 5 1  8.601 21.551 21.832 
419 5 1  6.967 19.471 22.010 
420 5 1  7.195 17.037 22.755 
421 5 1  7.181 14.417 23.113 
422 5 1  7.131 11.820 23.364 
423 5 1  7.278  9.203 23.616 
424 5 1  5.301  7.523 24.297 
425 5 1  3.910  6.605 25.971 
426 5 1  4.875  5.486 28.007 
427 5 1  5.555  4.280 30.180 
428 5 1  5.976  2.918 32.326 
429 5 1  6.836 47.587 34.407 
430 5 1  8.217 46.109 35.788 
431 5 1 10.077 44.711 36.793 
432 5 1 11.767 43.325 38.100 
433 5 1 12.952 42.327 40.042 
434 5 1 13.711 41.700 42.512 
435 5 1 13.198 40.885 44.705 
436 5 1 11.607 39.516 46.305 
437 5 1 10.168 38.246 48.004 
438 5 1  9.587 36.278  2.193 
439 5 1  9.781 33.758  2.637 
440 5 1 10.639 31.875 48.082 
441 6 1 42.757  7.069 41.070 
442 6 1 43.561  4.670 41.105 
443 6 1 43.605  2.346 41.344 
444 6 1 42.701 46.065 41.969 
445 6 1 41.918 43.615 42.305 
446 6 1 42.110 41.331 42.044 
447 6 1 42.095 38.942 41.556 
448 6 1 40.842 36.673 41.626 
449 6 1 39.353 34.598 41.698 
450 6 1 37.570 32.786 41.724 
451 6 1 35.734 31.034 41.547 
452 6 1 33.987 29.246 41.143 
453 6 1 32.249 27.515 40.743 
454 6 1 30.416 25.862 39.945 
455 6 1 28.254 24.655 39.408 
456 6 1 26.249 23.527 39.823 
457 6 1 24.479 22.543 41.364 
458 6 1 22.988 21.241 43.023 
459 6 1 22.342 19.186 43.918 
460 6 1 22.545 16.660 44.604 
461 6 1 22.441 14.103 44.910 
462 6 1 21.886 11.599 45.236 
463 6 1 20.436  9.798 45.103 
464 6 1 20.817  8.965 42.906 
465 6 1 20.676  6.470 42.128 
466 6 1 20.407  4.158 40.961 
467 6 1 19.590  2.014 40.676 
468 6 1 18.293 45.833 41.251 
469 6 1 17.406 45.168 43.692 
470 6 1 16.372 44.478 45.903 
471 6 1 16.900 42.871 47.743 
472 6 1 18.271 41.618  2.328 
473 6 1 20.391 40.363  3.114 
474 6 1 22.473 39.110  3.800 
475 6 1 24.601 37.962  4.417 
476 6 1 27.077 37.512  4.986 
477 6 1 29.185 38.392  5.358 
478 6 1 31.090 40.121  5.609 
479 6 1 32.637 41.880  6.585 
480 6 1 34.294 43.480  7.823 
481 6 1 36.241 44.910  8.725 
482 6 1 38.012 46.337  9.991 
483 6 1 39.183 47.701 11.763 
484 6 1 40.419  3.058 13.710 
485 6 1 41.630  4.139 15.719 
486 6 1 42.283  5.164 17.946 
487 6 1 42.515  6.119 20.261 
488 6 1 42.242  7.550 22.361 
489 6 1 41.538  9.232 24.095 
490 6 1 41.085 10.785 26.034 
491 6 1 42.218 13.102 26.562 
492 6 1 41.223 14.067 28.363 
493 6 1 40.866 14.206 30.941 
494 6 1 42.525 15.100 32.760 
495 6 1 43.486 14.315 34.971 
496 6 1 44.047 12.874 36.648 
497 6 1 44.737 10.822 37.681 
498 6 1 46.238  8.740 38.549 
499 6 1 48.792  8.274 38.241 
500 6 1 50.784  8.681 37.047 
501 6 1 -1.003  9.445 35.335 
502 6 1 -1.642 10.337 32.958 
503 6 1 -2.059 11.370 30.632 
504 6 1 51.462 12.627 28.329 
505 6 1 51.550 14.050 26.258 
506 6 1 -1.628 15.385 24.155 
507 6 1 -1.631 17.162 22.694 
508 6 1 -2.463 19.425 21.824 
509 6 1 50.152 21.622 20.786 
510 6 1 48.970 23.645 19.644 
511 6 1 47.724 25.461 18.342 
512 6 1 48.241 27.944 18.054 
513 6 1 49.470 29.918 17.544 
514 6 1 51.632 31.088 16.863 
515 6 1 -1.839 32.941 15.360 
516 6 1 50.337 34.852 14.215 
517 6 1 48.000 34.729 13.277 
518 6 1 46.083 33.569 12.401 
519 7 1 30.837 12.502  4.225 
520 7 1 28.848 11.180  3.960 
521 7 1 27.516  9.217  4.022 
522 7 1 26.890  7.837  2.317 
523 7 1 25.968  7.224 46.871 
524 7 1 25.780  5.772 45.077 
525 7 1 26.154  3.680 43.701 
526 7 1 26.617  1.456 42.520 
527 7 1 27.143 45.297 41.224 
528 7 1 27.086 42.874 41.947 
529 7 1 26.071 40.998 42.780 
530 7 1 25.133 39.460 44.233 
531 7 1 23.940 40.434 46.021 
532 7 1 22.714 42.485 46.086 
533 7 1 22.064 44.821 45.486 
534 7 1 21.081 46.963 45.722 
535 7 1 22.113  3.164 46.580 
536 7 1 20.911  5.285 47.351 
537 7 1 19.052  6.476 47.962 
538 7 1 16.494  6.858 48.418 
539 7 1 15.639  6.844  3.975 
540 7 1 14.636  6.809  6.354 
541 7 1 13.381  6.901  8.626 
542 7 1 11.928  6.925 10.832 
543 7 1 10.634  4.884 11.624 
544 7 1  9.651  2.633 12.554 
545 7 1 10.596  1.558 14.758 
546 7 1  9.657 47.444 16.962 
547 7 1  9.024  2.182 19.332 
548 7 1  9.300  4.473 20.040 
549 7 1  8.575  6.891 20.104 
550 7 1  7.526  9.146 19.462 
551 7 1  6.004 11.255 19.281 
552 7 1  5.565 13.532 19.401 
553 7 1  4.973 15.797 19.281 
554 7 1  3.770 18.001 19.339 
555 7 1  2.376 20.172 19.432 
556 7 1  0.766 22.119 19.613 
557 7 1 -0.796 23.212 17.767 
558 7 1 -1.641 23.330 15.530 
559 7 1 50.552 22.118 14.028 
560 7 1 48.500 21.484 13.031 
561 7 1 46.560 20.476 12.161 
562 7 1 44.754 18.874 11.742 
563 7 1 44.037 17.167 13.515 
564 7 1 43.561 16.124 15.561 
565 7 1 42.889 15.983 18.020 
566 7 1 40.557 16.336 18.868 
567 7 1 38.030 16.624 19.570 
568 7 1 35.592 16.637 20.524 
569 7 1 33.426 16.304 21.768 
570 7 1 31.349 15.341 22.226 
571 7 1 29.679 13.460 21.636 
572 7 1 27.969 11.630 21.008 
573 7 1 27.385  9.350 22.155 
574 7 1 25.156  8.931 21.909 
575 7 1 22.710  9.598 22.019 
576 7 1 20.225 10.169 21.929 
577 7 1 19.118 12.445 22.448 
578 7 1 17.800 14.671 22.732 
579 7 1 17.378 17.037 22.946 
580 7 1 17.589 19.537 23.450 
581 7 1 18.044 22.004 23.986 
582 7 1 20.005 23.254 25.038 
583 7 1 21.866 24.979 25.635 
584 7 1 23.801 26.670 25.687 
585 7 1 25.758 28.315 26.059 
586 7 1 27.437 30.220 26.568 
587 7 1 28.784 32.306 27.264 
588 7 1 28.021 34.750 26.598 
589 7 1 26.934 37.060 26.154 
590 7 1 25.901 39.330 25.520 
591 7 1 24.970 41.780 25.370 
592 7 1 24.110 44.224 25.173 
593 7 1 23.226 46.618 25.320 
594 7 1 23.466 48.191 27.321 
595 7 1 24.023  3.905 29.200 
596 7 1 24.931  5.331 31.153 
597 8 1 45.999  5.701 44.682 
598 8 1 47.741  4.409 46.116 
599 8 1 49.600  3.597 47.757 
600 8 1 -1.887  3.101  2.540 
601 8 1  0.133  2.126  2.734 
602 8 1  1.706 46.143  2.163 
603 8 1  1.669 44.711 46.771 
604 8 1  2.144 43.333 44.682 
605 8 1  2.942 42.066 42.593 
606 8 1  3.179 39.452 42.550 
607 8 1  3.190 36.833 42.449 
608 8 1  3.020 34.296 42.490 
609 8 1  2.951 31.769 42.727 
610 8 1  2.365 29.701 43.579 
611 8 1 -0.110 29.674 44.304 
612 8 1 -2.472 29.153 45.285 
613 8 1 48.604 28.585 45.919 
614 8 1 46.059 28.198 46.385 
615 8 1 43.653 27.765 47.106 
616 8 1 41.273 27.236 47.943 
617 8 1 38.847 27.010  1.974 
618 8 1 36.459 27.105  2.942 
619 8 1 34.156 27.589  3.938 
620 8 1 32.880 28.548  5.493 
621 8 1 32.504 29.615  7.884 
622 8 1 30.954 30.003  9.615 
623 8 1 28.870 29.933 10.939 
624 8 1 26.550 29.416 12.080 
625 8 1 24.892 29.721 13.634 
626 8 1 23.933 30.370 15.991 
627 8 1 22.669 31.440 17.621 
628 8 1 20.575 32.628 17.958 
629 8 1 18.069 33.349 17.724 
630 8 1 15.681 33.981 17.407 
631 8 1 13.150 34.194 17.105 
632 8 1 10.593 33.810 16.617 
633 8 1  8.447 32.814 17.110 
634 8 1  8.716 30.585 18.409 
635 8 1  8.549 28.180 19.555 
636 8 1  7.786 27.849 22.012 
637 8 1  6.843 27.623 24.421 
638 8 1  5.856 27.253 26.731 
639 8 1  5.828 27.039 29.054 
640 8 1  6.547 27.562 31.480 
641 8 1  6.896 28.237 33.880 
642 8 1  6.897 28.966 36.347 
643 8 1  7.698 27.334 38.157 
644 8 1  8.027 25.408 39.524 
645 8 1  8.280 22.982 40.024 
646 8 1  8.473 20.452 40.379 
647 8 1  8.594 17.984 40.929 
648 8 1  8.374 16.482 42.530 
649 8 1  8.444 16.188 44.978 
650 8 1  8.817 15.276 47.090 
651 8 1  8.818 14.038  2.251 
652 8 1  8.709 13.314  4.815 
653 8 1 10.833 13.352  5.700 
654 8 1 13.327 12.973  5.498 
655 8 1 13.622 12.795  3.123 
656 8 1 13.476 13.557 47.491 
657 8 1 13.148 14.429 45.109 
658 8 1 12.735 15.134 42.666 
659 8 1 12.297 15.733 40.144 
660 8 1 11.378 16.471 37.918 
661 8 1  9.796 16.278 36.295 
662 8 1  8.572 14.798 35.063 
663 8 1  8.211 13.903 33.038 
664 8 1 10.140 14.732 31.424 
665 8 1 11.910 16.070 29.983 
666 8 1 13.426 17.453 28.258 
667 8 1 15.245 18.670 27.247 
668 8 1 15.570 20.824 28.414 
669 8 1 16.143 23.189 29.409 
670 8 1 16.757 25.458 30.432 
671 8 1 17.741 27.143 32.111 
672 8 1 18.617 29.019 33.749 
673 8 1 21.015 29.784 33.999 
674 8 1 23.472 30.568 34.353 
675 9 1 26.969  2.005 23.569 
676 9 1 27.360 45.521 22.811 
677 9 1 27.599 43.224 21.738 
678 9 1 27.063 40.802 21.341 
679 9 1 26.891 38.260 21.030 
680 9 1 26.689 35.723 20.905 
681 9 1 26.240 33.813 19.852 
682 9 1 27.637 33.612 17.778 
683 9 1 28.935 33.654 15.619 
684 9 1 29.976 34.059 13.320 
685 9 1 30.854 34.848 10.940 
686 9 1 31.591 35.533  8.616 
687 9 1 32.552 35.178  6.649 
688 9 1 33.549 33.580  4.914 
689 9 1 35.027 32.858  3.241 
690 9 1 35.982 33.631  1.228 
691 9 1 34.897 33.689 46.068 
692 9 1 32.404 33.920 45.797 
693 9 1 30.990 32.232 44.358 
694 9 1 29.620 30.537 43.142 
695 9 1 27.496 29.213 43.824 
696 9 1 26.278 27.405 44.862 
697 9 1 25.697 25.191 45.997 
698 9 1 24.839 23.046 46.885 
699 9 1 23.827 20.838 47.734 
700 9 1 22.625 18.553 48.220 
701 9 1 21.610 16.145  1.757 
702 9 1 21.814 13.877  3.049 
703 9 1 22.271 11.452  3.942 
704 9 1 22.814  9.043  4.556 
705 9 1 23.569  6.590  4.864 
706 9 1 23.981  4.162  5.247 
707 9 1 24.923  2.448  3.445 
708 9 1 26.166 47.511  1.562 
709 9 1 28.169 47.193 47.328 
710 9 1 29.934  2.922 48.091 
711 9 1 31.213  4.826  1.436 
712 9 1 31.821  7.359  1.520 
713 9 1 32.959  9.646  1.499 
714 9 1 34.438 11.613  1.527 
715 9 1 36.170 13.383 47.678 
716 9 1 38.087 13.734 46.682 
717 9 1 40.021 12.943 45.214 
718 9 1 42.092 13.107 44.343 
719 9 1 44.123 13.451 43.474 
720 9 1 45.908 12.875 41.747 
721 9 1 47.872 13.336 40.796 
722 9 1 49.823 13.485 42.627 
723 9 1 -1.586 13.611 44.101 
724 9 1 -0.959 15.399 45.793 
725 9 1 -1.289 17.240 47.315 
726 9 1 -2.289 19.212  1.833 
727 9 1 48.823 19.856  2.200 
728 9 1 46.650 20.455  3.227 
729 9 1 44.883 20.673  5.119 
730 9 1 43.348 20.443  7.297 
731 9 1 41.947 19.388  8.787 
732 9 1 40.162 18.000  9.372 
733 9 1 38.688 17.043  7.436 
734 9 1 37.429 16.107  5.445 
735 9 1 37.328 17.398  3.235 
736 9 1 37.285 18.369  0.852 
737 9 1 37.373 18.899 45.127 
738 9 1 38.485 19.589 43.222 
739 9 1 40.245 20.757 41.686 
740 9 1 41.894 21.823 40.078 
741 9 1 43.653 22.950 38.651 
742 9 1 45.490 24.168 37.246 
743 9 1 46.188 26.754 37.363 
744 9 1 45.917 29.133 37.611 
745 9 1 44.772 31.417 37.703 
746 9 1 42.488 31.648 38.132 
747 9 1 40.682 30.373 39.118 
748 9 1 39.263 28.200 39.606 
749 9 1 37.607 26.190 40.167 
750 9 1 35.896 24.456 41.010 
751 9 1 34.497 22.750 42.337 
752 9 1 32.953 21.236 43.812 
753 10 1 47.947  2.354 38.012 
754 10 1 48.256  2.270 40.604 
755 10 1 48.526  1.672 43.130 
756 10 1 47.776 45.486 44.212 
757 10 1 45.942 45.042 46.024 
758 10 1 45.007 42.770 46.843 
759 10 1 44.168 40.424 47.347 
760 10 1 43.508 38.066 47.751 
761 10 1 43.963 36.303  2.820 
762 10 1 44.847 34.846  4.829 
763 10 1 43.930 34.492  7.306 
764 10 1 42.971 34.232  9.692 
765 10 1 42.133 33.871 12.128 
766 10 1 42.282 34.101 14.556 
767 10 1 42.808 35.612 16.626 
768 10 1 42.995 37.294 18.558 
769 10 1 43.203 38.706 20.751 
770 10 1 43.094 39.943 22.979 
771 10 1 42.845 40.971 25.312 
772 10 1 44.002 40.679 27.537 
773 10 1 44.853 40.530 29.962 
774 10 1 45.783 40.708 32.283 
775 10 1 44.925 42.231 34.173 
776 10 1 44.325 43.717 36.254 
777 10 1 45.373 43.936 38.561 
778 10 1 46.461 42.893 40.389 
779 10 1 47.625 40.993 41.554 
780 10 1 50.085 40.352 41.345 
781 10 1 51.125 38.253 42.523 
782 10 1 -1.289 36.596 44.117 
783 10 1 -0.332 34.916 45.785 
784 10 1  0.774 33.461 47.494 
785 10 1  1.777 31.728  2.179 
786 10 1  1.452 29.168  1.867 
787 10 1  0.416 27.040 48.298 
788 10 1 -1.312 25.146 48.403 
789 10 1 49.849 25.543  2.451 
790 10 1 47.482 26.118  3.502 
791 10 1 45.431 24.741  4.026 
792 10 1 43.313 25.626  5.122 
793 10 1 40.980 26.268  6.121 
794 10 1 39.193 27.623  6.624 
795 10 1 37.902 29.929  6.510 
796 10 1 38.680 32.217  5.872 
797 10 1 39.508 34.508  5.030 
798 10 1 40.112 36.975  4.448 
799 10 1 40.874 39.352  4.024 
800 10 1 41.851 41.691  3.475 
801 10 1 42.759 44.126  3.322 
802 10 1 43.852 46.411  3.003 
803 10 1 44.613  2.798  2.737 
804 10 1 45.370  5.255  2.940 
805 10 1 46.936  6.921  3.339 
806 10 1 49.296  7.390  4.048 
807 10 1 51.714  8.215  4.297 
808 10 1  0.248  7.006  4.865 
809 10 1  2.502  5.874  5.540 
810 10 1  3.872  4.059  5.808 
811 10 1  4.498  1.967  6.697 
812 10 1  2.632 47.127  8.215 
813 10 1  2.119  1.631 10.748 
814 10 1  1.381  2.956 12.549 
815 10 1  0.910  5.107 13.799 
816 10 1  1.819  7.430 13.628 
817 10 1  3.303  9.581 13.853 
818 10 1  5.240 11.125 14.327 
819 10 1  7.447 11.756 14.743 
820 10 1  9.524 12.273 15.320 
821 10 1 11.251 13.960 16.181 
822 10 1 10.686 16.298 17.026 
823 10 1 10.571 18.637 17.912 
824 10 1 10.540 21.232 18.550 
825 10 1  9.699 23.379 17.190 
826 10 1  8.799 25.371 15.782 
827 10 1  8.163 27.638 14.817 
828 10 1  7.640 29.962 13.704 
829 10 1  6.274 31.751 13.257 
830 10 1  4.363 33.327 13.849 
831 11 1 19.184 38.525 18.455 
832 11 1 19.070 40.593 17.108 
833 11 1 20.598 42.540 16.169 
834 11 1 22.012 44.423 15.191 
835 11 1 23.174 46.638 14.399 
836 11 1 24.180  2.992 14.071 
837 11 1 24.894  5.386 13.884 
838 11 1 25.280  7.945 13.824 
839 11 1 25.706 10.463 13.284 
840 11 1 26.128 12.838 12.315 
841 11 1 24.376 14.656 11.633 
842 11 1 24.714 17.003 10.634 
843 11 1 25.446 19.287  9.750 
844 11 1 26.169 20.571 11.662 
845 11 1 24.394 20.840 13.554 
846 11 1 24.184 19.593 15.796 
847 11 1 23.783 17.702 16.958 
848 11 1 23.453 15.127 17.109 
849 11 1 23.098 12.527 17.203 
850 11 1 22.705  9.890 17.328 
851 11 1 22.805  7.306 17.394 
852 11 1 22.901  4.830 18.077 
853 11 1 22.913  2.410 18.688 
854 11 1 22.531 45.905 19.446 
855 11 1 22.417 43.476 20.141 
856 11 1 22.494 41.001 20.991 
857 11 1 22.675 38.720 22.015 
858 11 1 22.784 36.189 22.856 
859 11 1 23.386 34.415 24.078 
860 11 1 23.461 33.575 26.366 
861 11 1 22.659 35.361 27.893 
862 11 1 22.419 37.856 28.802 
863 11 1 21.392 40.023 29.587 
864 11 1 22.261 42.312 28.992 
865 11 1 23.558 44.085 30.309 
866 11 1 25.369 45.694 31.145 
867 11 1 26.822 46.523 32.703 
868 11 1 25.365 47.421 34.695 
869 11 1 25.764  3.087 36.686 
870 11 1 26.511  4.795 38.424 
871 11 1 25.502  6.776 39.804 
872 11 1 24.796  8.753 41.268 
873 11 1 24.819 10.970 41.770 
874 11 1 25.736 13.315 41.569 
875 11 1 28.273 13.878 41.642 
876 11 1 30.627 13.724 42.127 
877 11 1 32.652 12.628 43.395 
878 11 1 33.914 10.791 44.046 
879 11 1 34.207  8.267 44.523 
880 11 1 33.752  5.780 44.314 
881 11 1 33.225  3.328 43.847 
882 11 1 32.630 46.759 43.537 
883 11 1 32.501 44.683 42.484 
884 11 1 32.575 42.908 40.573 
885 11 1 32.308 40.858 39.016 
886 11 1 30.424 39.616 37.799 
887 11 1 28.781 38.125 36.491 
888 11 1 27.163 36.594 36.252 
889 11 1 25.529 34.957 37.464 
890 11 1 23.983 33.336 38.745 
891 11 1 22.297 31.716 39.077 
892 11 1 21.004 29.710 38.364 
893 11 1 19.498 28.036 38.584 
894 11 1 17.367 26.924 39.598 
895 11 1 16.957 27.509 42.113 
896 11 1 16.234 27.924 44.599 
897 11 1 15.436 28.164 47.010 
898 11 1 14.692 28.276  2.644 
899 11 1 14.156 30.446  3.751 
900 11 1 13.674 32.772  4.700 
901 11 1 13.061 35.021  5.753 
902 11 1 12.372 37.189  5.879 
903 11 1 12.151 39.369  4.781 
904 11 1 12.437 41.480  3.556 
905 11 1 12.257 43.506  1.907 
906 11 1 11.737 45.462 47.166 
907 11 1 12.121 45.712 44.668 
908 11 1 12.721 46.446 42.319 
909 12 1 10.926 46.564 29.719 
910 12 1 13.365 46.394 30.353 
911 12 1 14.882 46.405 31.966 
912 12 1 15.532 46.810 34.403 
913 12 1 16.288 46.026 36.360 
914 12 1 17.071 44.273 38.085 
915 12 1 17.613 41.778 37.493 
916 12 1 15.702 40.432 37.586 
917 12 1 14.915 39.739 35.172 
918 12 1 13.053 40.669 33.578 
919 12 1 11.355 41.330 31.805 
920 12 1  9.110 41.647 30.422 
921 12 1  7.835 41.799 28.343 
922 12 1  9.428 41.179 26.479 
923 12 1 10.968 40.630 24.439 
924 12 1 13.041 40.381 23.346 
925 12 1 15.086 40.596 22.310 
926 12 1 17.044 41.955 21.208 
927 12 1 17.724 44.357 20.095 
928 12 1 18.644 46.498 21.249 
929 12 1 19.215  2.911 21.816 
930 12 1 19.530  4.911 22.909 
931 12 1 21.728  5.611 24.263 
932 12 1 24.011  6.410 25.260 
933 12 1 26.491  6.782 26.016 
934 12 1 27.820  5.297 27.589 
935 12 1 28.607  3.370 28.475 
936 12 1 28.845 46.915 28.360 
937 12 1 29.167 44.475 27.613 
938 12 1 29.801 42.270 26.379 
939 12 1 30.318 39.917 25.290 
940 12 1 30.717 37.461 24.431 
941 12 1 30.878 35.060 23.757 
942 12 1 30.608 32.616 23.006 
943 12 1 31.293 30.532 22.662 
944 12 1 31.846 28.429 22.058 
945 12 1 30.523 26.607 22.561 
946 12 1 29.005 25.211 23.997 
947 12 1 27.381 23.649 25.251 
948 12 1 25.796 21.983 26.401 
949 12 1 24.245 20.951 25.112 
950 12 1 23.096 20.157 23.243 
951 12 1 21.811 20.146 20.972 
952 12 1 20.274 19.221 19.544 
953 12 1 18.919 17.670 18.501 
954 12 1 19.757 15.146 18.930 
955 12 1 18.596 12.818 18.532 
956 12 1 17.467 10.617 18.595 
957 12 1 16.363  8.436 18.682 
958 12 1 15.632  6.731 20.037 
959 12 1 14.290  5.601 21.874 
960 12 1 14.094  4.318 23.757 
961 12 1 14.772  2.531 24.983 
962 12 1 14.762 45.977 25.147 
963 12 1 14.726 43.804 26.060 
964 12 1 15.143 42.088 27.895 
965 12 1 16.434 42.309 30.155 
966 12 1 17.655 42.396 32.349 
967 12 1 19.315 43.011 33.955 
968 12 1 21.377 44.045 35.075 
969 12 1 22.836 44.032 36.780 
970 12 1 21.968 44.283 39.139 
971 12 1 21.010 42.503 40.739 
972 12 1 19.489 41.278 42.456 
973 12 1 17.914 39.843 43.961 
974 12 1 16.515 38.391 45.605 
975 12 1 15.089 37.139 47.365 
976 12 1 16.239 36.111  2.381 
977 12 1 17.787 35.510  3.943 
978 12 1 18.733 35.415  5.953 
979 12 1 17.237 36.495  7.712 
980 12 1 15.587 35.661  9.480 
981 12 1 13.828 34.976 11.257 
982 12 1 11.606 34.623 11.898 
983 12 1  9.004 35.202 11.791 
984 12 1  6.614 36.237 11.674 
985 12 1  4.354 37.618 11.787 
986 12 1  4.335 39.787 12.584 