LAMMPS data file generated by aa2cg.

2000 atoms
1 atom types
1975 bonds
1 bond types
1950 angles
1 angle types
1925 dihedrals
1 dihedral types

 0.000 54.411 xlo xhi
 0.000 57.815 ylo yhi
 0.000 37.257 zlo zhi

Masses

1 24.022

Atoms # molecular

1 1 1 49.980  0.942 20.474 
2 1 1 27.639 23.963  8.470 
3 2 1 39.588 52.360 31.320 
4 2 1 17.245 36.035 31.113 
5 3 1 26.384 13.977 22.779 
6 3 1 26.711 38.059  7.082 
7 4 1 52.165 28.893 12.659 
8 4 1 29.384 44.555 14.968 
9 5 1  2.437 30.675 24.023 
10 5 1 45.581 51.397 33.054 
11 6 1 30.155  1.096 25.763 
12 6 1 43.141 13.228 38.036 
13 7 1  3.668 11.526 15.337 
14 7 1 14.598 26.975 41.638 
15 8 1 20.683  1.996 41.875 
16 8 1 47.897 36.264 32.547 
17 9 1 42.211 15.317 26.827 
18 9 1 19.908 26.126 29.746 
19 10 1 13.970 21.548 11.917 
20 10 1 25.727 36.542 28.918 
21 11 1 31.970 33.852 34.330 
22 11 1  3.691 41.127 17.005 
23 12 1 31.146 53.120  9.871 
24 12 1 20.172 -4.056 30.639 
25 13 1  8.961 41.557 18.182 
26 13 1 48.374 30.434 17.622 
27 14 1 38.279 12.191  8.085 
28 14 1 21.458 46.972 35.519 
29 15 1 25.707  4.525  7.551 
30 15 1  6.168 -2.251 21.576 
31 16 1 42.359 18.942 22.890 
32 16 1 48.816 11.045 36.068 
33 17 1  8.724 10.824 13.040 
34 17 1  5.400 24.911 17.851 
35 18 1 12.054 -4.284 32.610 
36 18 1  2.671 53.788 26.186 
37 19 1 23.143 29.186 37.705 
38 19 1 18.102 37.561 21.969 
39 20 1  4.700 53.432 12.330 
40 20 1 37.520 41.029 33.206 
41 21 1 36.212 35.746 19.017 
42 21 1 24.117 31.025 18.591 
43 22 1 19.754 36.793 42.156 
44 22 1 33.435 41.304 14.206 
45 23 1 18.101 29.996 12.354 
46 23 1  1.151 36.256 15.379 
47 24 1 19.183 37.970 37.632 
48 24 1 29.463 15.115 16.511 
49 25 1 29.575 22.973 42.165 
50 25 1  7.371  4.385 41.720 
51 1 1 51.226  1.287 22.414 
52 1 1 -1.701  2.236 24.205 
53 1 1 -0.143  2.818 26.199 
54 1 1  1.229  3.156 28.374 
55 1 1  1.361  2.877 30.555 
56 1 1  1.014  3.189 32.814 
57 1 1  1.304  4.489 35.009 
58 1 1  0.266  6.800 35.571 
59 1 1 -0.937  8.745 36.701 
60 1 1 -2.035  9.244 38.743 
61 1 1 50.623 10.002 40.447 
62 1 1 48.031  9.612 40.277 
63 1 1 45.718  9.009 39.331 
64 1 1 43.321  8.849 38.508 
65 1 1 40.987  9.157 37.537 
66 1 1 39.168  9.329 35.833 
67 1 1 38.757  9.735 33.254 
68 1 1 39.415  9.520 31.148 
69 1 1 41.195  9.238 29.278 
70 1 1 43.192 10.638 28.915 
71 1 1 44.837 12.229 28.870 
72 1 1 46.714 12.235 30.185 
73 1 1 49.180 11.602 30.596 
74 1 1 51.687 11.138 31.089 
75 1 1 -0.378 10.882 31.922 
76 1 1  1.827 11.195 33.137 
77 1 1  4.201 11.303 34.124 
78 1 1  6.597 11.781 35.108 
79 1 1  8.960 12.238 36.041 
80 1 1 11.382 12.655 36.800 
81 1 1 13.751 13.513 37.593 
82 1 1 16.009 14.153 38.496 
83 1 1 17.653 15.739 37.015 
84 1 1 19.121 14.443 35.486 
85 1 1 20.361 12.514 34.158 
86 1 1 21.531 10.593 32.968 
87 1 1 20.680  8.118 32.864 
88 1 1 19.701  5.662 32.533 
89 1 1 19.177  3.091 32.592 
90 1 1 19.447  0.553 33.230 
91 1 1 18.678 -1.540 33.838 
92 1 1 16.853 -3.147 34.690 
93 1 1 15.913 52.553 35.440 
94 1 1 17.822 51.254 34.328 
95 1 1 17.682 49.345 33.061 
96 1 1 17.475 46.879 32.672 
97 1 1 19.369 45.951 31.696 
98 1 1 21.453 45.558 30.708 
99 1 1 24.042 45.470 30.867 
100 1 1 25.427 46.803 32.630 
101 1 1 27.171 47.903 34.317 
102 1 1 28.679 49.028 36.143 
103 1 1 29.696 49.353 38.372 
104 1 1 29.820 50.062 40.659 
105 1 1 30.251 52.564 40.978 
106 1 1 28.547 -3.910 40.061 
107 1 1 26.483 -3.759 38.746 
108 1 1 25.217 51.791 38.568 
109 1 1 24.906 49.466 38.563 
110 1 1 25.478 47.162 39.214 
111 1 1 25.977 44.906 38.876 
112 1 1 28.163 44.764 37.519 
113 1 1 28.892 42.966 35.720 
114 1 1 29.430 43.162 33.201 
115 1 1 30.256 41.161 31.927 
116 1 1 31.078 38.968 30.739 
117 1 1 30.917 36.934 29.636 
118 1 1 30.519 34.990 28.286 
119 1 1 29.916 33.216 26.855 
120 1 1 29.215 33.317 24.548 
121 1 1 29.479 33.438 22.058 
122 1 1 29.506 33.568 19.511 
123 1 1 29.534 33.966 17.112 
124 1 1 28.431 33.809 15.013 
125 1 1 27.308 31.711 14.039 
126 1 1 27.260 29.884 12.466 
127 1 1 27.954 28.393 10.574 
128 1 1 28.112 26.357  9.336 
129 2 1 38.476 -4.216 29.384 
130 2 1 38.709 53.211 26.895 
131 2 1 38.926 52.547 24.488 
132 2 1 38.911 52.409 21.942 
133 2 1 38.568 52.513 19.365 
134 2 1 36.450 52.119 18.151 
135 2 1 34.583 50.878 16.849 
136 2 1 33.588 48.636 17.503 
137 2 1 32.345 46.554 18.275 
138 2 1 32.052 44.089 19.002 
139 2 1 32.869 41.978 19.774 
140 2 1 34.695 40.253 20.499 
141 2 1 36.728 39.048 21.552 
142 2 1 38.978 38.183 22.532 
143 2 1 41.215 37.561 23.505 
144 2 1 43.583 37.031 24.520 
145 2 1 44.884 36.170 26.168 
146 2 1 45.988 34.817 27.854 
147 2 1 48.591 35.382 27.864 
148 2 1 51.005 36.349 27.862 
149 2 1 -1.219 37.688 28.129 
150 2 1  0.833 39.394 28.125 
151 2 1  2.881 41.113 28.073 
152 2 1  4.761 42.939 28.256 
153 2 1  6.398 44.860 28.051 
154 2 1  7.531 45.535 25.815 
155 2 1  8.758 45.757 23.574 
156 2 1  9.657 46.512 21.282 
157 2 1  9.938 46.260 19.003 
158 2 1  9.504 46.250 16.780 
159 2 1  8.433 47.209 14.642 
160 2 1  7.332 48.442 12.665 
161 2 1  6.026 49.456 10.670 
162 2 1  5.519 49.810  8.462 
163 2 1  5.477 52.119  7.492 
164 2 1  5.466 -3.232  6.938 
165 2 1  5.692 -0.622  6.557 
166 2 1  4.734  1.467  6.773 
167 2 1  3.029  3.084  7.647 
168 2 1  1.905  4.477  9.170 
169 2 1  2.931  3.726 11.376 
170 2 1  3.763  2.781 13.640 
171 2 1  4.610  1.867 15.924 
172 2 1  6.033  1.026 17.652 
173 2 1  7.409  2.758 18.967 
174 2 1  8.450  3.551 21.001 
175 2 1  9.358  3.683 23.446 
176 2 1 10.262  3.852 25.824 
177 2 1 10.895  3.798 28.319 
178 2 1 10.608  3.686 30.891 
179 2 1 11.294  1.900 32.581 
180 2 1 11.857  0.294 34.483 
181 2 1 12.341 -1.223 36.506 
182 2 1 10.966 -3.042 37.576 
183 2 1  9.852 52.548 38.414 
184 2 1  8.574 50.471 39.221 
185 2 1  7.028 48.743 40.448 
186 2 1  5.683 46.712 41.192 
187 2 1  4.371 44.644 41.898 
188 2 1  3.174 42.538 42.908 
189 2 1  1.901 40.576  6.931 
190 2 1  0.596 38.851  8.324 
191 2 1 -0.771 37.095  9.606 
192 2 1 -2.214 35.353 10.904 
193 2 1 50.871 33.939 12.507 
194 2 1 51.662 33.722 15.061 
195 2 1 -2.243 33.718 17.582 
196 2 1 -1.824 33.933 20.111 
197 2 1 -0.328 34.494 21.909 
198 2 1  1.757 35.392 23.225 
199 2 1  3.606 36.505 24.687 
200 2 1  5.402 37.753 25.979 
201 2 1  7.462 38.930 27.130 
202 2 1  9.372 40.227 28.194 
203 2 1 10.521 39.883 30.571 
204 2 1 11.367 39.336 32.950 
205 2 1 13.519 37.873 33.294 
206 2 1 15.425 36.731 32.632 
207 3 1 24.094 14.290 24.019 
208 3 1 21.915 14.873 24.996 
209 3 1 19.873 16.189 25.983 
210 3 1 17.901 17.568 27.028 
211 3 1 15.813 18.553 28.217 
212 3 1 13.712 19.253 29.539 
213 3 1 11.714 20.182 30.798 
214 3 1 10.750 19.773 33.158 
215 3 1 10.771 21.500 35.028 
216 3 1 11.040 23.610 35.971 
217 3 1 11.839 26.056 35.911 
218 3 1 12.365 28.143 36.706 
219 3 1 12.445 30.061 38.477 
220 3 1 10.743 31.427 39.956 
221 3 1  9.198 32.902 41.458 
222 3 1  9.941 35.070 42.048 
223 3 1 10.430 37.584 41.723 
224 3 1 10.662 38.967 39.547 
225 3 1 11.217 40.648 37.672 
226 3 1 12.120 42.584 36.201 
227 3 1 13.352 43.477 34.413 
228 3 1 14.346 42.826 32.338 
229 3 1 15.080 41.329 30.353 
230 3 1 15.460 39.993 28.227 
231 3 1 15.767 39.017 25.954 
232 3 1 13.831 37.743 24.828 
233 3 1 11.756 36.661 23.839 
234 3 1 10.071 35.199 22.580 
235 3 1  8.140 33.852 21.569 
236 3 1  5.754 32.942 20.710 
237 3 1  3.759 31.754 19.589 
238 3 1  1.688 30.477 18.874 
239 3 1 -0.375 29.139 18.134 
240 3 1 -2.442 27.805 17.477 
241 3 1 50.929 25.908 16.799 
242 3 1 52.167 24.509 14.973 
243 3 1 -1.076 23.259 13.074 
244 3 1 -0.214 21.869 11.132 
245 3 1  0.302 20.466  9.102 
246 3 1  1.876 18.395  9.047 
247 3 1  3.551 16.649  8.398 
248 3 1  5.060 14.868  7.258 
249 3 1  6.447 13.067  5.932 
250 3 1  7.812 11.370 41.809 
251 3 1  9.411  9.862 40.405 
252 3 1 11.283  8.359 39.475 
253 3 1 11.236  7.485 37.100 
254 3 1  9.758  5.406 36.587 
255 3 1  7.935  3.669 36.020 
256 3 1  6.482  1.467 35.621 
257 3 1  5.005 -0.603 35.299 
258 3 1  3.361 -2.629 35.223 
259 3 1  1.910 -4.682 35.391 
260 3 1 -0.034 52.733 33.827 
261 3 1 -2.185 52.418 32.526 
262 3 1 50.196 52.078 31.022 
263 3 1 48.151 51.479 29.618 
264 3 1 45.893 50.698 28.705 
265 3 1 43.551 49.931 28.025 
266 3 1 42.560 48.559 29.470 
267 3 1 41.408 48.012 31.698 
268 3 1 40.867 47.498 34.190 
269 3 1 40.229 46.158 35.985 
270 3 1 37.899 45.272 36.487 
271 3 1 37.381 43.375 38.000 
272 3 1 36.783 41.429 39.522 
273 3 1 36.101 38.963 38.736 
274 3 1 35.973 36.528 38.033 
275 3 1 36.731 34.043 37.797 
276 3 1 36.472 31.850 36.608 
277 3 1 35.531 29.986 35.147 
278 3 1 33.089 29.351 35.260 
279 3 1 30.564 29.171 35.321 
280 3 1 28.520 29.760 36.252 
281 3 1 27.061 30.889 38.029 
282 3 1 27.404 33.121 39.336 
283 3 1 27.854 35.132 40.817 
284 3 1 28.129 37.139 42.374 
285 4 1 -0.078 30.205 13.055 
286 4 1  1.471 31.860 11.788 
287 4 1  3.078 33.581 10.824 
288 4 1  4.514 35.224  9.613 
289 4 1  5.898 37.059  8.459 
290 4 1  7.190 39.055  7.428 
291 4 1  8.480 41.135  6.568 
292 4 1  9.712 42.980 42.601 
293 4 1 10.914 44.865 41.265 
294 4 1 11.779 47.036 40.131 
295 4 1 12.689 49.216 39.146 
296 4 1 13.892 51.456 38.587 
297 4 1 16.084 52.102 39.620 
298 4 1 18.459 52.983 40.131 
299 4 1 20.729 -3.636 40.563 
300 4 1 22.921 -2.451 41.049 
301 4 1 25.035 -1.139 41.657 
302 4 1 27.173 -0.801 42.653 
303 4 1 29.374 -0.340  6.092 
304 4 1 31.391  0.102  5.102 
305 4 1 31.154  0.786 39.834 
306 4 1 31.693 -1.028 38.007 
307 4 1 32.511 -3.059 36.589 
308 4 1 33.374 -3.486 34.220 
309 4 1 34.091 -4.276 31.891 
310 4 1 34.790 52.643 29.552 
311 4 1 34.946 50.390 28.407 
312 4 1 35.953 48.577 27.470 
313 4 1 37.526 46.803 27.536 
314 4 1 38.623 44.794 28.677 
315 4 1 39.914 42.847 29.736 
316 4 1 41.016 40.908 30.083 
317 4 1 41.929 38.779 30.071 
318 4 1 42.891 36.609 30.936 
319 4 1 42.052 34.610 31.757 
320 4 1 40.720 32.412 31.696 
321 4 1 39.364 30.232 31.757 
322 4 1 37.809 28.076 31.757 
323 4 1 35.739 28.554 30.791 
324 4 1 33.430 29.435 30.515 
325 4 1 31.010 30.319 30.520 
326 4 1 28.753 31.593 30.430 
327 4 1 27.075 32.256 32.287 
328 4 1 25.384 33.150 34.091 
329 4 1 23.786 33.977 36.077 
330 4 1 24.207 35.887 37.790 
331 4 1 24.333 37.873 39.382 
332 4 1 24.205 39.913 40.979 
333 4 1 23.788 41.880 42.523 
334 4 1 24.112 43.826  6.447 
335 4 1 25.655 45.903  6.299 
336 4 1 27.236 47.939  6.130 
337 4 1 29.592 47.981  7.282 
338 4 1 30.912 47.823  9.142 
339 4 1 31.370 47.651 11.674 
340 4 1 30.143 49.066 13.445 
341 4 1 29.094 50.975 14.386 
342 4 1 30.583 52.923 14.775 
343 4 1 32.154 -2.983 15.113 
344 4 1 32.833 -1.765 13.225 
345 4 1 33.800 -1.488 10.849 
346 4 1 34.452 -1.481  8.329 
347 4 1 35.055 -2.181  5.960 
348 4 1 35.367 -3.621 41.107 
349 4 1 35.862 52.918 38.877 
350 4 1 36.319 51.655 36.646 
351 4 1 36.677 50.569 34.304 
352 4 1 37.163 49.383 32.016 
353 4 1 36.663 47.154 32.154 
354 4 1 35.239 44.943 32.623 
355 4 1 34.015 43.820 34.351 
356 4 1 32.952 43.372 36.691 
357 4 1 32.009 43.293 39.058 
358 4 1 30.668 42.744 40.903 
359 4 1 29.474 42.199 42.777 
360 4 1 28.975 42.454  7.978 
361 4 1 28.649 42.827 10.571 
362 4 1 29.263 42.764 13.157 
363 5 1  4.177 31.369 25.449 
364 5 1  6.491 32.497 25.967 
365 5 1  8.220 32.704 27.496 
366 5 1  9.560 30.776 28.418 
367 5 1 11.558 29.387 28.902 
368 5 1 13.419 28.346 28.129 
369 5 1 15.382 27.602 26.582 
370 5 1 17.145 26.408 25.139 
371 5 1 18.982 25.163 23.848 
372 5 1 20.963 24.242 22.551 
373 5 1 23.212 23.394 21.528 
374 5 1 24.904 24.616 19.983 
375 5 1 27.327 23.846 19.264 
376 5 1 29.503 22.852 18.432 
377 5 1 31.642 22.048 18.607 
378 5 1 33.976 21.653 19.905 
379 5 1 34.300 21.951 22.464 
380 5 1 33.493 21.513 24.641 
381 5 1 31.035 22.297 24.831 
382 5 1 28.563 22.850 25.116 
383 5 1 26.112 23.418 25.490 
384 5 1 24.236 24.621 25.932 
385 5 1 22.633 26.701 25.762 
386 5 1 20.874 28.577 25.579 
387 5 1 19.329 30.248 26.393 
388 5 1 18.033 31.834 27.906 
389 5 1 17.116 30.745 29.740 
390 5 1 16.115 29.010 31.327 
391 5 1 15.486 27.190 33.051 
392 5 1 15.421 24.893 34.273 
393 5 1 16.514 23.076 35.110 
394 5 1 18.612 21.658 35.725 
395 5 1 20.672 20.317 36.757 
396 5 1 22.781 19.353 35.676 
397 5 1 24.012 18.079 34.190 
398 5 1 24.605 15.586 34.183 
399 5 1 25.286 13.084 33.718 
400 5 1 25.493 10.535 33.043 
401 5 1 25.572  8.210 33.267 
402 5 1 25.589  6.141 34.838 
403 5 1 24.307  4.226 34.414 
404 5 1 24.002  2.148 33.083 
405 5 1 24.606  0.074 31.586 
406 5 1 24.828 -1.623 29.924 
407 5 1 24.604 -2.724 27.530 
408 5 1 24.405 -4.119 25.293 
409 5 1 22.941 -4.095 23.180 
410 5 1 21.794 -2.743 21.751 
411 5 1 20.812 -0.433 21.036 
412 5 1 19.454  0.383 22.751 
413 5 1 17.166  0.622 23.941 
414 5 1 15.055  1.335 25.022 
415 5 1 13.431  0.244 26.619 
416 5 1 11.799 -0.756 28.432 
417 5 1 10.301 -2.026 30.037 
418 5 1  8.171 -1.131 30.915 
419 5 1  6.649  0.574 31.186 
420 5 1  5.797  3.050 31.339 
421 5 1  5.852  4.644 29.550 
422 5 1  5.124  5.880 27.504 
423 5 1  4.191  7.396 25.609 
424 5 1  1.749  7.146 24.755 
425 5 1 -0.175  6.772 23.289 
426 5 1 -1.478  6.038 21.202 
427 5 1 51.483  5.337 19.279 
428 5 1 49.843  5.000 17.450 
429 5 1 48.380  4.711 15.320 
430 5 1 46.758  4.387 13.306 
431 5 1 45.499  3.431 11.110 
432 5 1 43.923  2.484  9.292 
433 5 1 42.265  1.576  7.557 
434 5 1 40.465  0.856  5.789 
435 5 1 38.954  0.443 41.091 
436 5 1 37.516 -0.195 39.008 
437 5 1 38.832 -1.486 37.638 
438 5 1 40.502 -3.244 36.805 
439 5 1 42.034 52.853 35.712 
440 5 1 43.665 51.946 34.298 
441 6 1 30.017  2.742 24.271 
442 6 1 29.171  3.975 22.233 
443 6 1 28.314  5.009 19.984 
444 6 1 27.774  5.617 17.563 
445 6 1 27.888  6.253 15.344 
446 6 1 29.235  7.552 13.558 
447 6 1 30.417  9.359 12.280 
448 6 1 32.580 10.794 12.740 
449 6 1 34.565 12.326 13.268 
450 6 1 35.134 14.671 12.387 
451 6 1 35.613 17.133 11.688 
452 6 1 36.433 19.511 10.856 
453 6 1 36.531 21.815 10.626 
454 6 1 36.023 24.230 11.393 
455 6 1 35.772 26.671 12.427 
456 6 1 36.426 28.940 12.057 
457 6 1 37.578 30.852 10.832 
458 6 1 38.917 32.670  9.469 
459 6 1 40.281 34.403  8.248 
460 6 1 42.820 34.378  8.259 
461 6 1 45.320 34.619  8.083 
462 6 1 47.797 34.970  7.878 
463 6 1 49.030 37.250  7.832 
464 6 1 50.022 39.575  7.697 
465 6 1 50.530 41.898  6.883 
466 6 1 50.379 43.767  5.500 
467 6 1 49.772 45.239 40.792 
468 6 1 49.267 46.825 38.787 
469 6 1 49.645 48.501 36.879 
470 6 1 49.633 50.479 36.023 
471 6 1 48.633 52.879 36.001 
472 6 1 47.953 -2.500 35.900 
473 6 1 45.555 -1.623 36.589 
474 6 1 43.393 -0.627 37.458 
475 6 1 43.140  1.812 38.330 
476 6 1 43.372  3.713 39.579 
477 6 1 44.068  4.999 41.602 
478 6 1 44.835  6.257  6.563 
479 6 1 44.956  7.358  8.917 
480 6 1 44.914  8.347 11.212 
481 6 1 44.029  9.105 13.627 
482 6 1 44.849  7.689 15.649 
483 6 1 43.518  5.873 16.937 
484 6 1 44.239  4.269 18.801 
485 6 1 44.453  2.502 20.688 
486 6 1 44.627  0.927 22.736 
487 6 1 44.828  1.472 25.258 
488 6 1 45.167  1.968 27.781 
489 6 1 45.713  2.423 30.169 
490 6 1 46.309  2.648 32.636 
491 6 1 46.847  3.342 35.101 
492 6 1 47.430  3.923 37.612 
493 6 1 48.410  4.352 39.960 
494 6 1 50.205  4.882 41.266 
495 6 1 -1.716  5.465 41.708 
496 6 1 -0.124  7.004 42.506 
497 6 1  0.702  9.205  6.370 
498 6 1  0.935 11.704 43.017 
499 6 1  0.715 14.129 42.254 
500 6 1  0.579 16.575 41.505 
501 6 1  0.314 18.198 39.826 
502 6 1  0.135 19.268 37.508 
503 6 1  0.890 20.438 35.370 
504 6 1  0.589 19.846 32.991 
505 6 1  0.206 19.434 30.454 
506 6 1 -0.477 19.295 28.036 
507 6 1 -1.292 19.427 25.667 
508 6 1 -1.923 19.248 23.065 
509 6 1 52.091 18.805 20.546 
510 6 1 51.605 18.215 18.078 
511 6 1 -2.386 19.318 15.712 
512 6 1 50.971 19.020 13.393 
513 6 1 50.531 18.106 11.130 
514 6 1 50.648 17.057  8.747 
515 6 1 50.654 15.635  6.601 
516 6 1 49.358 14.774 42.204 
517 6 1 47.217 14.346 40.930 
518 6 1 45.076 13.863 39.544 
519 7 1  4.327 13.257 16.839 
520 7 1  4.215 15.523 18.136 
521 7 1  3.752 17.423 19.806 
522 7 1  2.948 19.014 21.628 
523 7 1  2.257 20.753 23.422 
524 7 1  1.860 22.686 25.050 
525 7 1  1.844 24.084 26.977 
526 7 1  2.129 24.766 29.475 
527 7 1  2.546 25.342 31.953 
528 7 1  2.876 26.077 34.372 
529 7 1  3.217 26.684 36.817 
530 7 1  3.689 27.165 39.337 
531 7 1  4.499 27.669 41.678 
532 7 1  6.012 28.496  5.970 
533 7 1  8.234 29.662  6.350 
534 7 1 10.706 28.937  6.587 
535 7 1 12.712 30.542  6.866 
536 7 1 13.996 32.512  7.333 
537 7 1 15.402 34.219  7.644 
538 7 1 17.444 34.628  8.727 
539 7 1 18.983 34.673 10.763 
540 7 1 21.204 34.037 10.795 
541 7 1 23.677 34.247 10.529 
542 7 1 26.157 34.269  9.966 
543 7 1 28.549 33.856  9.186 
544 7 1 30.766 33.143  8.251 
545 7 1 33.088 32.861  7.212 
546 7 1 35.493 32.267  6.379 
547 7 1 37.108 34.055  5.432 
548 7 1 38.664 35.776 41.697 
549 7 1 39.817 37.661 40.459 
550 7 1 41.283 39.654 39.848 
551 7 1 42.798 41.657 40.001 
552 7 1 43.880 43.325 41.289 
553 7 1 44.722 45.150 42.596 
554 7 1 45.149 47.509  6.075 
555 7 1 45.094 49.876  6.985 
556 7 1 44.906 52.101  8.255 
557 7 1 44.888 -4.077 10.091 
558 7 1 45.259 -2.534 12.195 
559 7 1 46.032 -1.037 14.040 
560 7 1 46.959  0.079 16.190 
561 7 1 46.960 -1.205 18.388 
562 7 1 46.680 -3.062 19.887 
563 7 1 47.857 52.531 19.733 
564 7 1 48.868 50.278 19.923 
565 7 1 49.573 47.690 19.962 
566 7 1 47.902 45.862 20.793 
567 7 1 46.008 45.451 21.924 
568 7 1 43.868 46.098 22.971 
569 7 1 41.715 46.968 23.921 
570 7 1 39.637 47.482 22.547 
571 7 1 37.244 47.488 21.764 
572 7 1 35.368 49.081 22.313 
573 7 1 34.286 50.967 23.333 
574 7 1 34.000 53.317 24.500 
575 7 1 33.916 -1.873 24.825 
576 7 1 33.676  0.738 25.077 
577 7 1 34.368  2.699 23.438 
578 7 1 34.651  4.926 22.076 
579 7 1 36.088  7.043 22.056 
580 7 1 37.235  9.413 21.670 
581 7 1 36.050 11.654 22.185 
582 7 1 34.907 13.630 23.151 
583 7 1 33.927 15.727 24.111 
584 7 1 32.225 16.900 25.153 
585 7 1 29.868 17.105 26.280 
586 7 1 27.629 17.617 27.529 
587 7 1 25.416 17.881 28.931 
588 7 1 23.199 18.239 30.069 
589 7 1 20.999 18.702 31.017 
590 7 1 18.820 18.843 32.242 
591 7 1 16.512 18.532 33.259 
592 7 1 14.808 18.489 34.970 
593 7 1 13.615 18.846 37.276 
594 7 1 14.423 20.609 38.644 
595 7 1 13.033 22.447 39.883 
596 7 1 13.902 24.669 40.783 
597 8 1 18.677  0.732 40.841 
598 8 1 16.670 -0.530 39.808 
599 8 1 15.728  0.667 37.841 
600 8 1 15.359  2.552 36.224 
601 8 1 15.226  4.616 34.800 
602 8 1 15.010  5.688 32.772 
603 8 1 14.774  5.451 30.210 
604 8 1 15.565  3.440 29.623 
605 8 1 16.730  1.388 29.585 
606 8 1 16.401 -1.135 29.442 
607 8 1 16.012 -3.639 29.173 
608 8 1 15.810 51.601 28.906 
609 8 1 16.019 49.214 28.670 
610 8 1 16.091 46.731 28.272 
611 8 1 16.574 44.946 26.806 
612 8 1 17.132 43.822 24.585 
613 8 1 17.332 42.830 22.181 
614 8 1 17.526 41.742 19.783 
615 8 1 17.561 40.603 17.464 
616 8 1 18.139 41.904 15.681 
617 8 1 19.869 42.964 14.239 
618 8 1 21.831 43.627 12.698 
619 8 1 24.025 44.474 11.630 
620 8 1 25.379 46.184 11.054 
621 8 1 26.154 48.542 10.640 
622 8 1 26.746 50.768  9.676 
623 8 1 27.054 52.343  7.917 
624 8 1 25.376 51.851  6.015 
625 8 1 23.397 52.510  6.927 
626 8 1 21.634 52.431  8.814 
627 8 1 21.669 51.008 10.995 
628 8 1 21.182 49.395 12.924 
629 8 1 20.866 47.529 14.673 
630 8 1 19.073 46.998 16.451 
631 8 1 17.542 46.388 18.548 
632 8 1 16.036 46.576 20.673 
633 8 1 14.431 47.078 22.699 
634 8 1 12.937 47.646 24.742 
635 8 1 11.438 48.400 26.760 
636 8 1 10.033 48.515 28.861 
637 8 1  8.649 48.770 31.046 
638 8 1  6.891 48.831 32.906 
639 8 1  7.699 48.983 35.082 
640 8 1  8.050 46.661 36.196 
641 8 1  7.960 44.385 36.549 
642 8 1  6.624 42.526 36.847 
643 8 1  5.825 40.707 37.835 
644 8 1  6.123 38.447 39.066 
645 8 1  4.918 36.642 40.003 
646 8 1  3.203 37.548 41.648 
647 8 1  1.681 36.022 42.520 
648 8 1  1.085 33.728  5.619 
649 8 1  3.092 32.579 41.716 
650 8 1  5.258 31.750 40.766 
651 8 1  6.311 32.263 38.485 
652 8 1  6.883 30.497 36.711 
653 8 1  8.510 30.758 34.765 
654 8 1  9.443 31.979 33.205 
655 8 1 11.700 32.334 33.381 
656 8 1 14.005 32.141 33.779 
657 8 1 16.132 32.581 34.662 
658 8 1 18.304 33.035 33.946 
659 8 1 20.289 31.957 33.555 
660 8 1 20.713 29.478 33.189 
661 8 1 23.038 28.283 32.942 
662 8 1 25.390 27.340 32.759 
663 8 1 27.746 26.514 32.547 
664 8 1 30.130 25.540 32.254 
665 8 1 32.513 24.670 31.785 
666 8 1 34.921 23.748 31.486 
667 8 1 37.059 23.435 30.661 
668 8 1 39.164 23.999 29.449 
669 8 1 41.084 25.404 30.372 
670 8 1 42.527 26.831 31.785 
671 8 1 43.992 28.831 31.029 
672 8 1 44.742 30.764 32.541 
673 8 1 45.696 32.456 34.228 
674 8 1 46.873 34.786 33.905 
675 9 1 40.252 14.664 25.755 
676 9 1 40.035 14.580 23.194 
677 9 1 39.599 14.455 20.639 
678 9 1 39.088 14.336 18.107 
679 9 1 36.947 13.824 17.473 
680 9 1 34.798 12.455 17.514 
681 9 1 32.487 11.364 17.938 
682 9 1 31.483  9.840 19.925 
683 9 1 31.471  8.824 21.953 
684 9 1 29.798  8.897 23.605 
685 9 1 28.162  7.680 25.249 
686 9 1 26.407  7.165 26.723 
687 9 1 24.510  6.775 28.018 
688 9 1 22.982  4.966 29.101 
689 9 1 22.152  2.775 28.050 
690 9 1 21.198  0.491 27.358 
691 9 1 20.090 -1.739 26.603 
692 9 1 19.023 -3.955 25.782 
693 9 1 17.833 51.913 24.411 
694 9 1 18.310 50.184 23.036 
695 9 1 19.892 48.332 22.220 
696 9 1 21.645 46.650 21.226 
697 9 1 22.338 44.558 20.354 
698 9 1 22.046 42.007 19.654 
699 9 1 21.700 39.510 18.889 
700 9 1 21.574 36.983 18.448 
701 9 1 21.461 35.034 20.156 
702 9 1 21.735 33.563 22.055 
703 9 1 21.904 32.785 24.290 
704 9 1 21.533 34.797 25.881 
705 9 1 20.869 36.953 27.169 
706 9 1 20.528 39.286 27.926 
707 9 1 20.889 41.111 29.276 
708 9 1 19.808 41.149 31.610 
709 9 1 18.636 41.673 33.777 
710 9 1 17.386 42.020 36.005 
711 9 1 15.985 42.083 38.067 
712 9 1 14.357 41.988 40.047 
713 9 1 14.424 39.871 41.200 
714 9 1 14.668 37.321 41.421 
715 9 1 15.326 35.563 39.717 
716 9 1 13.682 35.075 38.151 
717 9 1 11.643 35.655 36.692 
718 9 1  9.467 36.432 35.495 
719 9 1  7.164 36.561 35.182 
720 9 1  4.682 36.126 35.551 
721 9 1  3.544 33.812 35.134 
722 9 1  2.977 32.135 33.618 
723 9 1  2.897 31.020 31.222 
724 9 1  3.598 29.428 29.721 
725 9 1  5.169 27.498 28.747 
726 9 1  6.396 25.304 27.946 
727 9 1  8.827 24.852 27.410 
728 9 1 11.159 24.296 26.507 
729 9 1 13.531 23.725 25.836 
730 9 1 13.918 21.322 24.906 
731 9 1 15.954 20.492 23.519 
732 9 1 17.945 19.557 22.146 
733 9 1 20.244 19.033 21.398 
734 9 1 22.206 19.441 20.377 
735 9 1 23.463 20.239 18.268 
736 9 1 24.993 20.198 16.554 
737 9 1 27.022 20.063 15.406 
738 9 1 29.075 20.017 14.433 
739 9 1 31.557 19.200 14.745 
740 9 1 34.019 18.429 15.159 
741 9 1 35.242 18.202 17.362 
742 9 1 36.512 18.287 19.607 
743 9 1 37.658 18.308 21.988 
744 9 1 37.403 18.200 24.259 
745 9 1 36.185 18.774 26.558 
746 9 1 34.946 19.271 28.701 
747 9 1 32.551 19.994 29.270 
748 9 1 30.190 21.046 29.271 
749 9 1 27.786 21.896 29.876 
750 9 1 25.432 22.402 30.753 
751 9 1 23.057 23.058 31.041 
752 9 1 20.675 23.969 30.861 
753 10 1 14.329 19.180 11.193 
754 10 1 14.644 16.675 10.561 
755 10 1 14.942 14.323  9.712 
756 10 1 16.593 13.403  7.983 
757 10 1 17.828 11.933  6.316 
758 10 1 20.150 11.018  6.637 
759 10 1 22.672 10.118  6.452 
760 10 1 23.585  8.157 42.204 
761 10 1 24.598  6.284 40.740 
762 10 1 25.249  4.006 39.409 
763 10 1 26.084  1.854 38.207 
764 10 1 27.489  0.563 36.675 
765 10 1 29.048  0.174 34.766 
766 10 1 30.408  0.072 32.578 
767 10 1 31.693 -0.143 30.397 
768 10 1 34.223  0.168 29.924 
769 10 1 36.686  0.075 29.320 
770 10 1 39.174 -0.031 28.710 
771 10 1 41.497 -0.867 28.253 
772 10 1 43.545 -2.429 27.798 
773 10 1 43.578 -3.886 25.673 
774 10 1 43.556 52.540 23.474 
775 10 1 43.498 50.891 21.410 
776 10 1 43.211 50.427 19.071 
777 10 1 40.907 49.654 18.153 
778 10 1 39.108 48.112 17.588 
779 10 1 37.850 45.856 17.682 
780 10 1 36.824 43.466 17.858 
781 10 1 37.960 41.097 17.614 
782 10 1 39.276 38.866 17.626 
783 10 1 40.606 36.711 17.976 
784 10 1 42.467 35.324 18.041 
785 10 1 44.869 34.423 17.935 
786 10 1 46.890 35.886 17.125 
787 10 1 48.593 37.624 16.224 
788 10 1 50.160 39.460 15.199 
789 10 1 51.834 39.104 13.257 
790 10 1 -1.575 40.995 11.762 
791 10 1 -0.651 43.022 10.541 
792 10 1  0.632 44.759  9.162 
793 10 1  1.274 46.482  7.724 
794 10 1  1.058 47.910  5.638 
795 10 1  1.523 49.652 41.398 
796 10 1  3.247 51.432 40.563 
797 10 1  4.662 53.351 39.648 
798 10 1  6.192 -2.601 38.785 
799 10 1  7.929 -1.012 39.239 
800 10 1  9.642  0.378 40.578 
801 10 1 11.484  1.775 40.914 
802 10 1 13.223  3.618 40.342 
803 10 1 15.464  4.831 40.141 
804 10 1 17.358  5.462 41.142 
805 10 1 18.645  6.164 43.257 
806 10 1 20.032  6.494  8.066 
807 10 1 20.012  5.344 10.143 
808 10 1 20.331  3.271 11.449 
809 10 1 20.435  0.708 12.191 
810 10 1 19.942 -1.863 11.930 
811 10 1 18.850 -3.893 12.462 
812 10 1 17.610 52.254 14.039 
813 10 1 16.486 50.371 14.660 
814 10 1 15.395 48.081 14.192 
815 10 1 14.270 46.278 15.055 
816 10 1 13.763 44.602 16.998 
817 10 1 13.325 42.862 18.910 
818 10 1 13.105 40.590 19.463 
819 10 1 13.598 37.969 19.336 
820 10 1 14.014 35.416 19.438 
821 10 1 16.020 34.094 18.650 
822 10 1 18.040 33.591 17.595 
823 10 1 19.932 33.704 15.811 
824 10 1 22.114 33.766 15.170 
825 10 1 24.461 34.811 15.197 
826 10 1 25.528 35.769 17.250 
827 10 1 25.927 37.257 19.410 
828 10 1 26.543 37.699 21.594 
829 10 1 26.909 37.098 23.857 
830 10 1 26.293 36.776 26.334 
831 11 1 29.956 34.873 34.129 
832 11 1 28.479 36.949 33.958 
833 11 1 26.728 38.241 34.645 
834 11 1 27.831 39.313 36.491 
835 11 1 29.487 38.052 38.032 
836 11 1 31.595 38.005 36.799 
837 11 1 33.169 38.511 34.801 
838 11 1 34.566 37.977 33.100 
839 11 1 36.424 36.899 31.756 
840 11 1 36.519 34.563 32.118 
841 11 1 36.047 33.255 29.902 
842 11 1 35.877 32.224 27.582 
843 11 1 34.067 31.277 25.914 
844 11 1 32.808 30.376 23.791 
845 11 1 32.500 30.696 21.481 
846 11 1 34.653 30.752 20.122 
847 11 1 34.314 31.606 18.006 
848 11 1 33.268 31.791 15.675 
849 11 1 32.174 32.080 13.273 
850 11 1 31.952 30.210 11.411 
851 11 1 32.191 28.286  9.732 
852 11 1 32.873 26.482  8.019 
853 11 1 31.929 27.088  5.864 
854 11 1 30.364 28.848 42.647 
855 11 1 28.323 30.278 43.177 
856 11 1 26.251 31.675  6.571 
857 11 1 23.969 32.067  6.575 
858 11 1 22.035 32.150  5.311 
859 11 1 20.616 32.674 40.540 
860 11 1 18.709 32.868 39.190 
861 11 1 17.484 30.610 38.874 
862 11 1 17.318 28.677 37.554 
863 11 1 18.748 27.061 36.588 
864 11 1 20.747 25.462 36.713 
865 11 1 22.823 23.923 37.014 
866 11 1 25.233 24.723 37.077 
867 11 1 27.517 25.462 37.657 
868 11 1 29.918 26.024 38.454 
869 11 1 32.503 26.244 38.521 
870 11 1 33.246 24.471 37.264 
871 11 1 33.987 22.705 36.068 
872 11 1 35.459 20.657 35.822 
873 11 1 35.917 19.923 37.997 
874 11 1 34.363 18.099 38.693 
875 11 1 32.791 16.296 39.728 
876 11 1 31.979 14.097 40.240 
877 11 1 32.175 11.610 40.292 
878 11 1 32.309  9.056 40.214 
879 11 1 33.328  8.150 38.114 
880 11 1 33.874  7.980 35.639 
881 11 1 34.387  8.278 33.189 
882 11 1 34.870  8.673 30.658 
883 11 1 35.474  8.896 28.085 
884 11 1 37.162  9.174 26.522 
885 11 1 39.467  9.800 25.572 
886 11 1 41.078  9.994 23.893 
887 11 1 41.754  9.676 21.456 
888 11 1 41.849  9.205 18.940 
889 11 1 42.210 11.133 17.252 
890 11 1 42.497 13.204 15.760 
891 11 1 43.012 15.104 14.166 
892 11 1 43.330 17.288 12.819 
893 11 1 43.557 19.523 11.633 
894 11 1 43.485 22.060 11.422 
895 11 1 43.752 24.576 11.308 
896 11 1 41.917 25.694 12.052 
897 11 1 40.427 27.211 13.056 
898 11 1 41.516 29.500 12.981 
899 11 1 42.297 31.911 12.906 
900 11 1 41.948 34.343 12.908 
901 11 1 42.197 36.651 13.435 
902 11 1 43.472 38.654 14.444 
903 11 1 44.937 40.494 15.680 
904 11 1 46.147 42.700 16.431 
905 11 1 48.524 43.411 17.033 
906 11 1 50.981 43.598 17.298 
907 11 1 -0.977 43.011 17.022 
908 11 1  1.358 42.229 16.986 
909 12 1 32.137 52.039  8.007 
910 12 1 33.716 50.892  6.371 
911 12 1 34.598 49.234 42.213 
912 12 1 34.536 47.909 40.399 
913 12 1 34.531 47.340 37.881 
914 12 1 33.339 48.153 35.723 
915 12 1 32.350 48.850 33.387 
916 12 1 31.370 48.870 31.031 
917 12 1 30.681 48.843 28.464 
918 12 1 29.690 48.593 26.148 
919 12 1 30.488 47.160 24.207 
920 12 1 32.250 46.029 23.252 
921 12 1 34.461 44.799 23.229 
922 12 1 36.739 43.482 23.244 
923 12 1 38.044 41.765 24.789 
924 12 1 40.545 41.557 24.478 
925 12 1 42.665 42.141 25.702 
926 12 1 44.192 43.252 27.013 
927 12 1 45.126 44.559 28.983 
928 12 1 45.817 46.207 30.957 
929 12 1 45.539 45.882 33.401 
930 12 1 45.267 45.319 35.983 
931 12 1 44.760 47.010 37.857 
932 12 1 44.650 49.079 38.825 
933 12 1 45.439 51.367 39.467 
934 12 1 46.569 53.696 39.827 
935 12 1 48.312 -3.561 41.581 
936 12 1 49.368 -3.235 43.745 
937 12 1 49.702 -3.438  8.951 
938 12 1 49.649 -3.595 11.484 
939 12 1 49.456 53.157 13.762 
940 12 1 49.049 51.286 15.577 
941 12 1 47.170 49.493 15.888 
942 12 1 45.403 47.667 16.224 
943 12 1 43.572 45.975 16.709 
944 12 1 41.803 44.247 17.565 
945 12 1 40.902 43.561 19.899 
946 12 1 41.870 41.445 20.313 
947 12 1 43.957 40.008 20.333 
948 12 1 46.132 38.887 19.703 
949 12 1 48.641 39.183 19.701 
950 12 1 51.129 38.978 19.595 
951 12 1 -0.743 38.518 19.506 
952 12 1  1.843 38.388 19.728 
953 12 1  4.342 37.971 19.909 
954 12 1  6.434 38.517 20.820 
955 12 1  8.042 39.891 22.272 
956 12 1  9.738 41.232 23.620 
957 12 1 11.408 42.446 25.254 
958 12 1 12.770 43.532 27.211 
959 12 1 11.636 44.350 29.449 
960 12 1 10.076 44.271 31.089 
961 12 1  7.789 44.026 32.041 
962 12 1  6.370 42.173 32.059 
963 12 1  4.939 40.160 32.476 
964 12 1  3.023 38.496 32.080 
965 12 1  1.008 36.942 32.235 
966 12 1 -0.942 35.333 32.183 
967 12 1 -2.907 33.650 31.693 
968 12 1 49.536 31.892 31.327 
969 12 1 47.962 31.059 29.402 
970 12 1 46.665 30.276 27.321 
971 12 1 44.134 30.471 26.944 
972 12 1 42.231 31.653 27.258 
973 12 1 40.795 33.723 27.412 
974 12 1 39.252 35.808 27.479 
975 12 1 37.741 37.937 27.681 
976 12 1 36.216 39.853 28.333 
977 12 1 34.377 41.549 28.973 
978 12 1 33.576 43.991 28.221 
979 12 1 31.436 44.727 28.374 
980 12 1 28.932 44.669 27.730 
981 12 1 26.543 44.731 26.670 
982 12 1 24.258 45.122 25.575 
983 12 1 22.051 45.746 25.717 
984 12 1 20.908 47.323 26.762 
985 12 1 20.519 49.507 27.903 
986 12 1 20.289 51.700 29.163 