LAMMPS data file generated by aa2cg.

2000 atoms
1 atom types
1975 bonds
1 bond types
1950 angles
1 angle types
1925 dihedrals
1 dihedral types

 0.000 43.415 xlo xhi
 0.000 48.333 ylo yhi
 0.000 55.566 zlo zhi

Masses

1 24.022

Atoms # molecular

1 1 1 11.252 32.563 21.466 
2 1 1 28.743 35.643 12.260 
3 2 1  8.579 27.804 51.101 
4 2 1 33.696 25.175 22.205 
5 3 1 37.893  6.509 31.476 
6 3 1 21.153  8.728 39.501 
7 4 1 43.462 21.223 14.145 
8 4 1 20.019 40.583  7.908 
9 5 1 42.356 39.401  2.059 
10 5 1 31.842 43.848 38.383 
11 6 1 42.150 16.204 28.491 
12 6 1 34.278 24.129 37.940 
13 7 1 10.887 40.622 32.455 
14 7 1 24.628  8.072 14.930 
15 8 1 21.739  4.210 46.794 
16 8 1 38.289 16.814 27.782 
17 9 1  4.153 20.911 21.852 
18 9 1 13.171  2.150 44.190 
19 10 1 17.817 23.710 38.086 
20 10 1 40.678 17.528 43.867 
21 11 1 46.299 25.690 40.364 
22 11 1 41.944 26.225 23.758 
23 12 1 23.012  1.295 41.812 
24 12 1  8.995 15.259  1.110 
25 13 1 14.593 42.456 16.099 
26 13 1 33.015  2.272 38.709 
27 14 1 29.720 21.028  6.081 
28 14 1 42.012 42.320 41.248 
29 15 1 42.540  1.480 17.159 
30 15 1 45.848  7.657  1.164 
31 16 1 18.228 43.720 10.201 
32 16 1 10.957 23.203 -2.465 
33 17 1  3.404 10.950 -0.953 
34 17 1  4.763 10.540 30.727 
35 18 1 26.524 10.137 20.289 
36 18 1 15.789  4.002 16.098 
37 19 1  5.393 25.439 18.985 
38 19 1 39.388 15.210 10.634 
39 20 1 16.534 41.252 19.633 
40 20 1  5.559 46.253 28.175 
41 21 1 11.206 39.285 19.168 
42 21 1 18.719 24.303 17.545 
43 22 1 12.472 14.411  4.112 
44 22 1 20.807 24.361 29.422 
45 23 1  5.055 14.654 30.643 
46 23 1 13.727 10.516  7.333 
47 24 1 26.533 29.958  0.940 
48 24 1 21.304 45.819 18.963 
49 25 1 30.170 24.441 35.652 
50 25 1 42.241 11.570 15.991 
51 1 1 10.865 34.153 23.378 
52 1 1  9.134 35.345 24.632 
53 1 1  6.599 35.889 25.274 
54 1 1  4.809 36.149 26.722 
55 1 1  4.104 34.201 28.195 
56 1 1  3.091 32.668 30.032 
57 1 1 45.413 31.253 31.884 
58 1 1 44.018 29.561 32.714 
59 1 1 42.393 27.667 32.693 
60 1 1 39.837 27.752 32.840 
61 1 1 37.321 27.976 33.262 
62 1 1 35.266 28.613 34.396 
63 1 1 34.184 29.618 36.491 
64 1 1 34.301 30.865 38.575 
65 1 1 35.585 30.101 40.729 
66 1 1 36.573 28.449 41.994 
67 1 1 37.288 26.194 43.043 
68 1 1 39.133 24.491 42.330 
69 1 1 41.188 23.019 41.691 
70 1 1 43.019 21.642 40.431 
71 1 1 42.532 19.381 39.291 
72 1 1 41.765 17.110 38.246 
73 1 1 40.494 15.058 38.493 
74 1 1 39.034 13.189 39.439 
75 1 1 38.226 12.946 41.887 
76 1 1 39.777 12.157 43.585 
77 1 1 41.651 13.569 43.131 
78 1 1 43.672 14.473 41.829 
79 1 1 45.698 15.529 40.555 
80 1 1 46.493 14.917 38.197 
81 1 1  4.347 14.050 36.210 
82 1 1  6.695 14.189 36.315 
83 1 1  8.048 12.552 35.385 
84 1 1  8.425 12.211 32.902 
85 1 1  8.753 11.671 30.392 
86 1 1 10.886 10.805 29.319 
87 1 1 13.026  9.787 28.353 
88 1 1 14.537  7.936 27.737 
89 1 1 16.192  6.110 27.076 
90 1 1 17.826  4.265 26.434 
91 1 1 19.484  2.456 25.692 
92 1 1 21.320  0.775 25.016 
93 1 1 23.051 47.147 24.881 
94 1 1 24.571 46.056 23.127 
95 1 1 25.761 45.562 21.007 
96 1 1 26.368 45.264 18.503 
97 1 1 26.764 44.340 16.059 
98 1 1 27.418 42.993 13.967 
99 1 1 27.990 41.464 12.080 
100 1 1 28.757 39.889 10.127 
101 1 1 29.797 38.396  8.288 
102 1 1 30.809 36.304  7.584 
103 1 1 32.343 34.243  7.832 
104 1 1 31.433 31.994  8.969 
105 1 1 30.022 30.154 10.129 
106 1 1 28.299 28.626 11.096 
107 1 1 26.443 27.068 11.822 
108 1 1 24.617 25.329 12.572 
109 1 1 22.614 23.778 13.194 
110 1 1 20.833 22.122 14.027 
111 1 1 19.625 20.156 15.060 
112 1 1 17.671 18.864 14.265 
113 1 1 15.439 17.784 13.559 
114 1 1 13.129 17.882 13.330 
115 1 1 11.441 19.145 12.602 
116 1 1 10.243 20.932 11.689 
117 1 1  9.152 23.277 11.583 
118 1 1  9.419 24.999 13.519 
119 1 1  9.866 26.562 15.580 
120 1 1 10.293 28.160 17.564 
121 1 1 12.308 29.638 17.987 
122 1 1 14.318 30.774 19.136 
123 1 1 16.504 31.096 19.304 
124 1 1 19.022 30.992 18.603 
125 1 1 21.398 31.466 17.632 
126 1 1 23.624 32.398 16.623 
127 1 1 25.797 33.261 15.570 
128 1 1 27.317 34.621 14.154 
129 2 1  9.127 30.356 51.145 
130 2 1  9.412 32.950 51.344 
131 2 1  8.978 34.667 49.567 
132 2 1  7.149 36.422 49.584 
133 2 1  5.532 38.315 49.577 
134 2 1  4.204 40.674 49.402 
135 2 1  2.657 42.767 49.516 
136 2 1 44.257 44.617 49.445 
137 2 1 42.437 46.486 49.162 
138 2 1 42.574 48.937 49.737 
139 2 1 43.138  2.592 50.679 
140 2 1 44.794  4.228 51.689 
141 2 1 46.558  5.935 52.302 
142 2 1  5.174  7.298 -2.641 
143 2 1  6.737  8.425 -1.236 
144 2 1  7.493  9.414  0.990 
145 2 1  8.587 10.716  2.509 
146 2 1 11.040  9.996  2.119 
147 2 1 12.060  9.619 -0.239 
148 2 1 12.918  9.143 -2.646 
149 2 1 15.231  8.216 -3.531 
150 2 1 17.236  6.941 51.951 
151 2 1 18.949  5.174 52.585 
152 2 1 20.547  3.395 -1.976 
153 2 1 22.106  1.803 -0.718 
154 2 1 23.653  0.364  0.779 
155 2 1 25.672 47.794  1.587 
156 2 1 27.731 47.186  2.466 
157 2 1 29.634 46.144  3.067 
158 2 1 31.763 44.830  2.480 
159 2 1 33.771 43.505  1.657 
160 2 1 35.579 41.886  1.110 
161 2 1 36.888 39.977  1.325 
162 2 1 37.855 37.866  1.665 
163 2 1 39.245 35.871  1.716 
164 2 1 40.427 33.834  1.909 
165 2 1 40.460 31.376  1.420 
166 2 1 40.528 28.811  1.045 
167 2 1 40.058 27.591 -1.140 
168 2 1 39.703 27.616 -3.448 
169 2 1 41.430 28.535 50.480 
170 2 1 43.191 28.892 48.677 
171 2 1 43.828 31.126 47.486 
172 2 1 44.015 33.489 46.278 
173 2 1 44.223 35.892 45.448 
174 2 1 44.277 38.265 45.516 
175 2 1 44.353 40.673 45.802 
176 2 1 44.279 43.260 45.385 
177 2 1 45.356 44.738 43.503 
178 2 1  3.170 46.372 41.979 
179 2 1 45.970 47.058 39.572 
180 2 1 45.547 47.808 37.081 
181 2 1 45.137 48.082 34.651 
182 2 1 44.939 48.357 31.974 
183 2 1 45.134 48.603 29.396 
184 2 1 45.384 48.679 26.904 
185 2 1 45.391 48.888 24.338 
186 2 1  4.125  0.944 22.799 
187 2 1  6.391  1.526 21.586 
188 2 1  8.339  1.822 20.001 
189 2 1  9.919  3.855 19.601 
190 2 1 11.665  5.654 20.062 
191 2 1 12.169  7.900 18.742 
192 2 1 12.595 10.299 18.033 
193 2 1 12.028 12.570 17.955 
194 2 1 10.337 14.219 17.659 
195 2 1  8.708 15.661 16.196 
196 2 1  7.187 17.138 14.725 
197 2 1  6.229 19.101 13.802 
198 2 1  5.529 21.563 13.907 
199 2 1  4.991 24.044 14.068 
200 2 1  4.324 26.494 14.251 
201 2 1  2.496 27.516 15.666 
202 2 1 43.727 28.679 16.600 
203 2 1 42.045 28.969 18.182 
204 2 1 40.331 27.894 19.695 
205 2 1 37.965 26.960 20.185 
206 2 1 35.729 25.976 20.986 
207 3 1 38.465  8.257 29.719 
208 3 1 39.165  9.864 27.857 
209 3 1 40.084 11.387 25.980 
210 3 1 40.947 12.946 24.212 
211 3 1 41.934 14.045 22.181 
212 3 1 42.854 15.255 20.166 
213 3 1 43.822 16.720 18.304 
214 3 1 46.248 17.226 18.007 
215 3 1  5.057 16.746 18.217 
216 3 1  5.692 16.943 20.698 
217 3 1  5.851 15.108 22.482 
218 3 1  5.990 13.304 24.402 
219 3 1  5.664 11.200 25.389 
220 3 1  7.708  9.823 25.350 
221 3 1  8.075  8.099 27.167 
222 3 1  8.218  6.562 29.196 
223 3 1  8.149  6.667 31.839 
224 3 1  9.797  7.361 33.297 
225 3 1 11.307  9.058 34.494 
226 3 1 12.866 10.610 35.731 
227 3 1 14.878 11.800 36.594 
228 3 1 16.999 13.054 37.382 
229 3 1 19.148 14.118 38.187 
230 3 1 19.845 16.541 38.526 
231 3 1 19.600 18.503 39.726 
232 3 1 18.138 20.009 41.266 
233 3 1 17.045 21.499 42.986 
234 3 1 16.597 22.899 45.192 
235 3 1 16.100 24.166 47.390 
236 3 1 16.485 25.866 49.121 
237 3 1 17.300 28.070 50.235 
238 3 1 17.725 30.501 50.849 
239 3 1 18.589 31.776 49.118 
240 3 1 18.578 32.612 46.722 
241 3 1 18.515 33.349 44.283 
242 3 1 18.545 31.617 42.732 
243 3 1 19.841 29.501 42.055 
244 3 1 20.747 27.457 42.562 
245 3 1 21.031 25.300 43.997 
246 3 1 20.879 23.055 45.315 
247 3 1 20.329 20.985 46.896 
248 3 1 19.381 19.117 48.321 
249 3 1 18.279 17.205 49.713 
250 3 1 16.658 15.457 49.821 
251 3 1 15.020 13.689 48.700 
252 3 1 13.548 11.796 47.754 
253 3 1 12.315 11.654 45.482 
254 3 1 11.300 10.922 43.186 
255 3 1 10.382  9.975 40.995 
256 3 1  9.893  8.924 38.702 
257 3 1  8.571  6.868 37.852 
258 3 1  7.343  4.876 36.876 
259 3 1  5.790  3.107 35.736 
260 3 1  5.865  2.662 33.246 
261 3 1  7.016  2.575 31.371 
262 3 1  9.214  2.331 30.100 
263 3 1 11.622  3.297 30.542 
264 3 1 13.379  4.772 31.156 
265 3 1 14.826  6.307 32.542 
266 3 1 16.281  7.761 34.004 
267 3 1 17.978  9.261 34.558 
268 3 1 20.224 10.375 34.395 
269 3 1 22.206 11.197 35.344 
270 3 1 23.325 12.584 36.891 
271 3 1 24.117 14.788 37.846 
272 3 1 24.993 17.218 38.131 
273 3 1 26.160 19.448 38.729 
274 3 1 27.383 21.453 39.831 
275 3 1 26.607 23.786 39.194 
276 3 1 25.324 25.207 37.970 
277 3 1 22.945 25.874 38.486 
278 3 1 21.979 24.166 39.641 
279 3 1 22.120 22.103 41.046 
280 3 1 22.147 20.182 42.741 
281 3 1 23.570 17.998 42.919 
282 3 1 22.752 15.660 42.174 
283 3 1 22.007 13.407 41.324 
284 3 1 21.537 11.037 40.476 
285 4 1 42.680 23.211 12.716 
286 4 1 44.442 24.556 11.368 
287 4 1 44.094 25.610  9.325 
288 4 1 43.569 25.385  6.858 
289 4 1 42.626 24.842  4.675 
290 4 1 42.051 24.091  2.296 
291 4 1 41.339 23.436  0.015 
292 4 1 40.649 22.662 -2.307 
293 4 1 40.921 22.797 50.944 
294 4 1 43.469 22.483 50.263 
295 4 1 45.010 24.492 49.805 
296 4 1  3.298 26.397 49.767 
297 4 1  4.445 28.515 49.620 
298 4 1  4.697 30.909 49.678 
299 4 1  3.910 33.243 50.161 
300 4 1  2.496 35.240 50.895 
301 4 1 44.385 37.335 51.482 
302 4 1 43.113 39.410 -3.268 
303 4 1 41.584 41.233 -2.254 
304 4 1 40.334 42.959 -0.915 
305 4 1 39.319 44.772  0.623 
306 4 1 37.925 46.990 -0.107 
307 4 1 37.404 48.549  1.597 
308 4 1 37.856  2.156  3.197 
309 4 1 37.281  4.295  3.836 
310 4 1 36.244  6.196  4.637 
311 4 1 33.919  6.168  5.678 
312 4 1 31.525  6.138  6.616 
313 4 1 29.277  6.373  6.851 
314 4 1 26.993  7.085  5.994 
315 4 1 24.706  8.036  5.190 
316 4 1 22.234  8.273  4.351 
317 4 1 20.594 10.167  4.091 
318 4 1 19.573 12.295  4.126 
319 4 1 18.900 14.612  4.503 
320 4 1 18.464 17.050  4.850 
321 4 1 17.524 19.438  5.063 
322 4 1 16.289 21.220  4.284 
323 4 1 14.379 21.787  3.110 
324 4 1 13.241 19.872  1.911 
325 4 1 12.757 18.395  0.108 
326 4 1 12.887 16.580 -1.266 
327 4 1 13.141 14.032 -1.834 
328 4 1 15.530 12.920 -1.915 
329 4 1 17.766 11.582 -2.282 
330 4 1 20.068 10.360 -2.348 
331 4 1 22.423  9.401 -2.324 
332 4 1 24.947  8.767 -1.962 
333 4 1 27.468  8.021 -2.049 
334 4 1 29.759  8.050 -2.688 
335 4 1 31.518  9.062 51.464 
336 4 1 33.561 10.086 50.677 
337 4 1 33.654 12.541 50.947 
338 4 1 33.806 15.115 51.184 
339 4 1 35.977 16.410 51.449 
340 4 1 36.644 17.077 -1.991 
341 4 1 37.323 16.632  0.498 
342 4 1 37.874 16.383  2.928 
343 4 1 39.396 16.421  5.062 
344 4 1 41.258 16.693  6.877 
345 4 1 43.428 15.287  7.240 
346 4 1 43.602 13.181  8.119 
347 4 1 43.922 10.931  8.812 
348 4 1 44.045  8.651  9.543 
349 4 1 45.279  6.888  8.132 
350 4 1  3.554  5.787  7.474 
351 4 1  5.888  4.821  8.030 
352 4 1  8.272  3.938  8.673 
353 4 1 10.174  2.610  9.782 
354 4 1 12.044  1.474 10.964 
355 4 1 14.234  0.802 12.002 
356 4 1 16.320 48.325 13.162 
357 4 1 17.946 47.227 14.715 
358 4 1 19.320 45.510 15.392 
359 4 1 21.671 45.668 14.251 
360 4 1 22.667 43.903 12.732 
361 4 1 22.569 42.089 11.322 
362 4 1 21.067 40.556  9.845 
363 5 1 44.319 38.168  0.818 
364 5 1 44.817 35.660  1.166 
365 5 1 44.479 33.453  1.727 
366 5 1 44.883 31.395  2.652 
367 5 1 46.191 29.261  3.251 
368 5 1  3.884 27.077  3.602 
369 5 1  4.815 24.789  4.145 
370 5 1  5.034 23.940  6.588 
371 5 1  5.804 25.349  8.245 
372 5 1  5.661 27.378  9.806 
373 5 1  3.561 28.633  9.236 
374 5 1 44.947 29.593  7.973 
375 5 1 42.793 30.404  6.779 
376 5 1 40.941 31.843  6.853 
377 5 1 39.181 32.944  8.273 
378 5 1 37.130 32.905  9.309 
379 5 1 36.292 31.236 10.978 
380 5 1 35.212 28.866 10.616 
381 5 1 33.630 27.436 12.086 
382 5 1 31.972 25.857 13.285 
383 5 1 30.275 24.455 14.446 
384 5 1 27.962 23.744 15.330 
385 5 1 26.241 22.573 16.572 
386 5 1 24.783 20.585 17.523 
387 5 1 23.550 18.427 18.211 
388 5 1 22.294 17.013 19.454 
389 5 1 20.570 16.881 21.349 
390 5 1 18.634 17.657 22.991 
391 5 1 16.479 18.425 23.681 
392 5 1 14.481 19.334 24.511 
393 5 1 14.285 21.824 25.145 
394 5 1 15.509 23.996 25.759 
395 5 1 16.664 26.159 26.620 
396 5 1 17.496 28.433 27.396 
397 5 1 18.768 30.406 27.390 
398 5 1 20.891 30.010 28.351 
399 5 1 22.344 29.606 30.377 
400 5 1 24.110 29.380 32.197 
401 5 1 25.748 28.524 33.784 
402 5 1 27.316 27.222 34.955 
403 5 1 28.571 28.528 36.787 
404 5 1 28.937 29.267 38.905 
405 5 1 29.870 27.254 40.037 
406 5 1 30.121 27.071 42.387 
407 5 1 29.893 28.445 44.091 
408 5 1 28.989 29.739 45.776 
409 5 1 28.147 29.939 48.217 
410 5 1 26.317 28.374 49.207 
411 5 1 25.128 26.428 49.529 
412 5 1 24.595 23.982 49.099 
413 5 1 24.183 21.478 48.456 
414 5 1 23.877 18.992 47.825 
415 5 1 24.285 16.527 47.946 
416 5 1 26.571 16.258 49.302 
417 5 1 28.898 16.417 50.379 
418 5 1 30.459 17.062 51.902 
419 5 1 31.094 17.755 -1.298 
420 5 1 32.229 18.301  0.960 
421 5 1 33.544 18.577  3.101 
422 5 1 34.918 18.504  5.214 
423 5 1 36.231 18.868  7.242 
424 5 1 37.732 19.191  9.352 
425 5 1 38.918 19.516 11.557 
426 5 1 39.487 19.645 13.941 
427 5 1 40.042 19.508 16.491 
428 5 1 39.248 18.177 18.627 
429 5 1 38.708 17.367 21.012 
430 5 1 37.621 16.135 22.720 
431 5 1 36.534 13.932 23.534 
432 5 1 35.866 11.508 24.285 
433 5 1 35.220  9.316 25.387 
434 5 1 34.085  7.338 26.521 
435 5 1 32.950  5.245 27.350 
436 5 1 32.178  3.551 28.812 
437 5 1 31.948  2.307 31.032 
438 5 1 31.899  0.688 33.032 
439 5 1 31.896 47.460 35.106 
440 5 1 32.044 45.829 37.038 
441 6 1 40.972 14.402 29.861 
442 6 1 39.693 12.761 31.253 
443 6 1 38.235 11.313 32.793 
444 6 1 37.036 10.029 34.673 
445 6 1 35.696  8.742 36.494 
446 6 1 34.085  7.606 38.110 
447 6 1 32.343  6.838 39.869 
448 6 1 30.438  6.015 41.288 
449 6 1 28.274  5.438 42.368 
450 6 1 26.620  3.848 43.117 
451 6 1 27.609  1.448 43.016 
452 6 1 27.599 47.817 41.824 
453 6 1 27.494 46.805 39.461 
454 6 1 27.398 45.669 37.130 
455 6 1 27.274 46.950 34.833 
456 6 1 27.449 48.152 32.617 
457 6 1 27.771  1.087 30.395 
458 6 1 27.615  2.369 28.168 
459 6 1 27.602  3.408 25.763 
460 6 1 25.691  3.532 24.462 
461 6 1 23.355  4.636 24.240 
462 6 1 21.194  5.985 23.955 
463 6 1 20.360  7.800 25.644 
464 6 1 19.875  9.600 27.351 
465 6 1 19.163 10.935 29.306 
466 6 1 17.859 11.700 31.326 
467 6 1 15.443 12.634 31.542 
468 6 1 13.223 13.833 31.755 
469 6 1 11.211 15.369 32.173 
470 6 1  9.137 16.760 32.868 
471 6 1  6.939 18.048 33.236 
472 6 1  4.466 18.936 33.317 
473 6 1  3.346 19.560 35.469 
474 6 1 46.476 19.802 37.816 
475 6 1  4.007 19.782 40.198 
476 6 1  5.398 19.835 42.490 
477 6 1  5.306 17.863 43.667 
478 6 1  3.872 16.242 45.064 
479 6 1 45.334 14.788 45.791 
480 6 1 43.525 13.262 46.781 
481 6 1 42.084 11.807 48.343 
482 6 1 39.601 11.939 48.951 
483 6 1 39.205 13.310 50.858 
484 6 1 40.489 14.652 52.247 
485 6 1 41.543 15.845 -1.688 
486 6 1 41.805 17.564  0.225 
487 6 1 42.428 19.116  2.182 
488 6 1 43.971 20.324  3.511 
489 6 1 46.352 21.022  4.207 
490 6 1  5.030 20.827  2.648 
491 6 1  7.152 20.584  1.154 
492 6 1  8.354 19.792 -0.640 
493 6 1  8.580 18.506 -2.838 
494 6 1  9.523 17.567 50.702 
495 6 1  9.847 16.070 48.954 
496 6 1  9.408 14.302 47.049 
497 6 1  7.341 13.216 45.897 
498 6 1  5.319 12.046 44.956 
499 6 1  3.237 10.783 44.407 
500 6 1 44.664  9.318 43.730 
501 6 1 42.445  8.838 43.522 
502 6 1 40.598  7.922 45.006 
503 6 1 38.624  7.176 46.425 
504 6 1 36.776  6.231 47.914 
505 6 1 35.187  5.231 49.650 
506 6 1 33.147  4.219 51.010 
507 6 1 30.745  4.644 50.160 
508 6 1 28.601  5.506 49.101 
509 6 1 27.184  6.619 47.283 
510 6 1 26.025  7.735 45.264 
511 6 1 25.012  8.763 43.094 
512 6 1 26.143 10.282 41.395 
513 6 1 27.260 11.871 39.797 
514 6 1 28.573 13.818 38.680 
515 6 1 29.953 15.839 37.987 
516 6 1 31.490 17.906 37.754 
517 6 1 33.204 19.752 37.902 
518 6 1 33.495 22.015 36.705 
519 7 1 10.315 42.812 31.787 
520 7 1 10.494 44.552 30.328 
521 7 1 11.550 46.321 28.792 
522 7 1 12.985 48.188 27.764 
523 7 1 14.988  1.244 28.050 
524 7 1 16.976 48.193 28.915 
525 7 1 18.762 46.976 28.205 
526 7 1 20.472 45.691 27.295 
527 7 1 21.532 43.553 27.460 
528 7 1 21.953 41.046 27.258 
529 7 1 22.485 38.642 26.901 
530 7 1 24.043 36.933 27.399 
531 7 1 25.664 35.212 27.836 
532 7 1 26.611 32.866 28.339 
533 7 1 27.553 30.610 28.981 
534 7 1 28.390 28.177 29.729 
535 7 1 26.793 26.222 29.902 
536 7 1 25.349 24.039 30.321 
537 7 1 24.791 23.145 32.670 
538 7 1 24.268 22.162 34.971 
539 7 1 22.158 21.008 35.629 
540 7 1 21.126 19.115 34.923 
541 7 1 19.081 20.060 33.661 
542 7 1 17.224 21.390 32.396 
543 7 1 15.619 23.110 31.338 
544 7 1 13.779 24.703 30.333 
545 7 1 11.982 26.334 29.428 
546 7 1 11.336 27.003 26.996 
547 7 1 10.665 27.319 24.482 
548 7 1  9.434 28.395 22.464 
549 7 1  7.231 29.175 22.817 
550 7 1  6.824 31.632 22.210 
551 7 1  6.854 33.635 20.961 
552 7 1  7.050 34.626 18.701 
553 7 1  7.251 35.377 16.307 
554 7 1  7.669 35.681 13.753 
555 7 1  8.515 36.396 11.434 
556 7 1  8.640 37.749  9.523 
557 7 1  7.729 39.582  8.079 
558 7 1  6.950 41.766  6.691 
559 7 1  4.986 43.300  7.301 
560 7 1  2.937 44.686  7.967 
561 7 1 44.310 45.942  9.367 
562 7 1 44.478 46.300 11.767 
563 7 1 42.564 46.020 13.405 
564 7 1 40.834 46.121 15.395 
565 7 1 39.479 46.341 17.617 
566 7 1 39.478 44.799 19.564 
567 7 1 39.745 43.409 21.768 
568 7 1 40.054 41.948 23.825 
569 7 1 40.014 40.416 25.828 
570 7 1 40.123 38.663 27.799 
571 7 1 38.949 38.264 29.726 
572 7 1 38.259 40.644 30.512 
573 7 1 37.063 41.979 29.080 
574 7 1 36.685 43.131 26.740 
575 7 1 36.139 44.369 24.531 
576 7 1 35.639 45.788 22.459 
577 7 1 35.333 47.250 20.250 
578 7 1 34.641 48.504 18.096 
579 7 1 36.121  1.715 16.630 
580 7 1 38.171  2.781 15.614 
581 7 1 39.371  2.455 13.372 
582 7 1 41.704  3.048 12.633 
583 7 1 44.142  3.191 12.098 
584 7 1 46.679  3.004 11.649 
585 7 1  4.543  1.121 10.413 
586 7 1  6.254 47.846  9.130 
587 7 1  8.037 46.658  7.630 
588 7 1 10.665 46.562  7.739 
589 7 1 13.210 46.296  7.926 
590 7 1 15.172 47.213  7.715 
591 7 1 17.003 48.580  7.916 
592 7 1 19.158  1.175  8.885 
593 7 1 20.713  2.902  9.382 
594 7 1 21.910  5.105  8.868 
595 7 1 22.344  6.431 10.667 
596 7 1 23.481  7.308 12.712 
597 8 1 23.557  2.807 46.676 
598 8 1 25.734  1.808 47.415 
599 8 1 27.973  0.810 48.125 
600 8 1 30.054 47.916 49.030 
601 8 1 31.891 46.332 50.009 
602 8 1 33.408 44.402 50.936 
603 8 1 34.925 42.353 51.656 
604 8 1 36.420 40.239 51.929 
605 8 1 38.420 38.442 52.384 
606 8 1 40.222 36.684 52.700 
607 8 1 41.557 34.567 -2.601 
608 8 1 42.777 32.298 -2.331 
609 8 1 44.615 30.610 -2.834 
610 8 1 44.865 28.450 -2.012 
611 8 1 45.001 26.256 -1.330 
612 8 1 45.575 24.046 -0.589 
613 8 1 45.438 21.572 -0.383 
614 8 1 45.051 19.826 -2.295 
615 8 1 44.418 18.046 51.529 
616 8 1 43.791 17.443 49.360 
617 8 1 41.530 17.602 48.509 
618 8 1 39.214 16.833 47.827 
619 8 1 36.883 15.792 47.516 
620 8 1 36.324 13.649 46.284 
621 8 1 35.485 11.234 45.553 
622 8 1 35.197  9.365 44.212 
623 8 1 35.940  8.163 42.153 
624 8 1 38.251  8.398 40.970 
625 8 1 40.357  9.263 39.653 
626 8 1 42.591  9.915 38.494 
627 8 1 43.142 12.068 37.140 
628 8 1 43.711 12.596 34.673 
629 8 1 43.675 14.827 34.149 
630 8 1 42.502 17.013 33.453 
631 8 1 41.735 19.158 33.610 
632 8 1 41.278 21.243 34.997 
633 8 1 40.410 23.393 36.147 
634 8 1 39.286 25.385 37.289 
635 8 1 38.984 27.716 37.633 
636 8 1 39.073 30.230 36.912 
637 8 1 39.004 32.401 37.439 
638 8 1 38.191 34.237 38.561 
639 8 1 36.337 35.998 39.137 
640 8 1 35.211 37.960 39.945 
641 8 1 35.106 40.284 41.174 
642 8 1 34.114 42.280 41.660 
643 8 1 32.127 43.772 42.659 
644 8 1 31.093 45.719 43.499 
645 8 1 31.235 48.134 44.345 
646 8 1 31.558  2.218 45.171 
647 8 1 31.749  4.619 45.879 
648 8 1 31.699  7.073 46.549 
649 8 1 30.687  8.776 44.865 
650 8 1 30.637  9.993 42.848 
651 8 1 32.533 11.679 42.120 
652 8 1 33.769 13.692 41.271 
653 8 1 34.688 15.835 41.471 
654 8 1 35.631 17.720 42.761 
655 8 1 36.309 19.913 43.193 
656 8 1 37.231 20.511 40.907 
657 8 1 37.916 20.655 38.310 
658 8 1 37.374 19.902 35.895 
659 8 1 36.943 18.468 34.153 
660 8 1 35.994 16.343 33.740 
661 8 1 35.206 14.938 35.771 
662 8 1 33.440 13.179 35.714 
663 8 1 31.676 11.327 35.961 
664 8 1 29.742  9.655 36.671 
665 8 1 27.894  8.025 37.383 
666 8 1 26.587  6.083 37.241 
667 8 1 27.912  3.908 37.489 
668 8 1 29.860  3.797 36.312 
669 8 1 31.813  4.609 34.767 
670 8 1 32.372  6.705 33.328 
671 8 1 33.466  8.759 32.248 
672 8 1 34.271 10.986 31.238 
673 8 1 35.339 13.096 30.187 
674 8 1 36.717 15.044 28.937 
675 9 1  2.346 22.041 20.378 
676 9 1 44.081 23.177 18.738 
677 9 1 42.217 24.070 17.141 
678 9 1 40.198 24.408 15.621 
679 9 1 38.444 24.415 13.687 
680 9 1 36.942 24.342 11.419 
681 9 1 35.667 24.195  9.204 
682 9 1 34.323 23.882  6.982 
683 9 1 33.420 23.570  4.553 
684 9 1 32.768 23.655  2.144 
685 9 1 31.896 23.907 -0.290 
686 9 1 30.505 24.636 -2.485 
687 9 1 30.663 25.559 50.942 
688 9 1 31.588 26.553 48.734 
689 9 1 32.622 25.325 46.681 
690 9 1 33.183 24.198 44.433 
691 9 1 32.756 22.904 42.621 
692 9 1 31.249 21.032 42.112 
693 9 1 29.938 18.812 42.200 
694 9 1 28.665 16.586 42.044 
695 9 1 28.422 14.612 43.876 
696 9 1 26.159 13.440 44.579 
697 9 1 24.001 12.408 45.345 
698 9 1 21.850 12.507 46.158 
699 9 1 19.869 13.712 46.250 
700 9 1 17.939 15.247 45.403 
701 9 1 18.058 15.889 43.146 
702 9 1 16.031 15.459 41.778 
703 9 1 14.011 14.939 40.294 
704 9 1 12.010 13.697 39.257 
705 9 1 10.886 15.198 37.942 
706 9 1  9.583 17.471 37.607 
707 9 1  8.321 19.646 37.192 
708 9 1  7.298 21.982 36.806 
709 9 1  6.485 24.329 36.436 
710 9 1  5.797 26.756 36.125 
711 9 1  5.254 29.093 35.390 
712 9 1  4.192 31.052 36.603 
713 9 1  2.894 32.989 37.705 
714 9 1 44.155 34.015 36.764 
715 9 1 42.193 33.950 35.733 
716 9 1 42.125 34.061 33.190 
717 9 1 42.100 34.196 30.619 
718 9 1 41.943 34.882 28.211 
719 9 1 41.634 35.042 25.619 
720 9 1 40.436 33.504 23.966 
721 9 1 39.551 31.484 23.421 
722 9 1 37.471 30.664 24.064 
723 9 1 35.012 29.805 23.843 
724 9 1 32.461 29.261 23.618 
725 9 1 29.942 28.713 23.911 
726 9 1 27.424 28.540 24.503 
727 9 1 24.956 28.852 25.240 
728 9 1 23.061 27.208 25.421 
729 9 1 21.397 25.279 25.298 
730 9 1 19.826 23.264 25.232 
731 9 1 18.935 21.291 26.005 
732 9 1 19.571 20.602 28.375 
733 9 1 21.736 19.497 29.009 
734 9 1 24.046 19.095 29.268 
735 9 1 26.335 19.476 28.903 
736 9 1 28.426 20.299 29.747 
737 9 1 30.549 20.253 31.235 
738 9 1 32.467 18.947 31.624 
739 9 1 32.089 16.332 31.797 
740 9 1 30.779 14.306 32.087 
741 9 1 28.661 12.854 32.282 
742 9 1 26.740 11.190 32.334 
743 9 1 24.671  9.618 32.298 
744 9 1 22.628  8.053 31.713 
745 9 1 20.564  6.753 30.805 
746 9 1 19.158  5.039 30.745 
747 9 1 18.028  3.169 31.565 
748 9 1 16.470  1.974 33.233 
749 9 1 15.308  0.831 35.250 
750 9 1 14.422 48.262 37.600 
751 9 1 15.415  0.641 39.879 
752 9 1 14.377  1.753 41.972 
753 10 1 16.412 24.541 40.087 
754 10 1 15.085 25.857 41.887 
755 10 1 13.851 27.150 43.618 
756 10 1 12.910 28.421 45.599 
757 10 1 12.887 29.038 47.797 
758 10 1 12.637 28.762 50.282 
759 10 1 12.566 28.138 52.783 
760 10 1 11.532 28.161 -0.307 
761 10 1 11.549 26.104  1.254 
762 10 1  9.495 24.850  2.404 
763 10 1  9.637 22.781  4.018 
764 10 1  9.683 20.703  5.411 
765 10 1 10.410 18.766  6.655 
766 10 1 12.177 17.205  7.636 
767 10 1 14.167 15.817  8.370 
768 10 1 16.505 14.758  8.536 
769 10 1 18.779 13.721  8.756 
770 10 1 21.133 12.726  8.964 
771 10 1 23.358 11.555  9.413 
772 10 1 25.600 10.401  9.953 
773 10 1 27.614  8.995 10.473 
774 10 1 28.748  6.942 11.036 
775 10 1 27.254  4.944 10.891 
776 10 1 25.613  2.915 10.819 
777 10 1 24.385  0.658 10.596 
778 10 1 23.896 46.958  9.628 
779 10 1 23.088 45.877  7.772 
780 10 1 21.632 45.558  5.674 
781 10 1 19.957 47.015  4.296 
782 10 1 18.414 48.427  2.961 
783 10 1 16.853  1.581  1.520 
784 10 1 15.298  3.108  0.171 
785 10 1 13.090  4.029 -0.277 
786 10 1 11.107  5.256 -0.415 
787 10 1  9.149  4.535 -1.391 
788 10 1  8.005  2.605 -1.688 
789 10 1  9.368  0.653 -0.878 
790 10 1 10.741 46.829 -0.675 
791 10 1 11.716 44.481 -0.593 
792 10 1 12.655 42.132 -0.520 
793 10 1 13.080 40.276  0.721 
794 10 1 13.133 38.560  2.563 
795 10 1 13.784 36.589  3.691 
796 10 1 14.967 34.298  3.968 
797 10 1 16.080 32.034  4.415 
798 10 1 17.176 29.719  4.977 
799 10 1 18.011 27.267  5.444 
800 10 1 19.043 25.011  6.113 
801 10 1 20.258 22.878  6.929 
802 10 1 21.085 21.194  8.231 
803 10 1 20.559 19.364  9.525 
804 10 1 17.971 19.314  9.712 
805 10 1 15.889 20.218  9.530 
806 10 1 13.824 21.722  8.998 
807 10 1 13.124 23.057  6.897 
808 10 1 14.328 25.139  5.974 
809 10 1 13.494 27.345  5.134 
810 10 1 12.551 29.440  3.992 
811 10 1 11.663 31.523  2.585 
812 10 1 10.837 33.533  1.296 
813 10 1 10.376 35.556 -0.218 
814 10 1 10.146 37.682 -1.541 
815 10 1  9.882 40.054 -2.653 
816 10 1  9.615 40.618 50.361 
817 10 1  8.915 40.985 47.863 
818 10 1  7.381 40.953 46.051 
819 10 1  5.882 39.951 44.692 
820 10 1  5.466 37.558 45.503 
821 10 1  4.923 34.980 45.959 
822 10 1  6.520 33.211 45.583 
823 10 1  8.812 31.967 45.868 
824 10 1  8.549 29.636 46.003 
825 10 1  7.863 27.235 45.436 
826 10 1  6.432 25.609 45.828 
827 10 1  4.794 24.033 45.953 
828 10 1  3.184 22.129 45.323 
829 10 1 44.832 20.375 45.065 
830 10 1 42.790 18.824 44.662 
831 11 1  5.160 25.040 41.316 
832 11 1  7.558 24.127 41.707 
833 11 1  9.869 22.930 42.088 
834 11 1 12.124 21.519 41.912 
835 11 1 13.493 20.206 40.483 
836 11 1 14.428 19.005 38.452 
837 11 1 15.240 17.726 36.410 
838 11 1 16.173 16.720 34.203 
839 11 1 17.283 16.429 31.926 
840 11 1 18.311 15.769 29.648 
841 11 1 19.539 14.977 27.613 
842 11 1 20.569 14.147 25.367 
843 11 1 21.250 12.841 23.199 
844 11 1 21.679 11.206 21.151 
845 11 1 21.269 11.297 18.642 
846 11 1 19.532 10.041 17.225 
847 11 1 17.613  8.922 15.845 
848 11 1 15.464  8.583 14.558 
849 11 1 13.402  8.681 13.066 
850 11 1 11.222  8.612 12.105 
851 11 1  8.757  8.238 11.426 
852 11 1  6.631  7.878 12.807 
853 11 1  4.310  7.978 13.693 
854 11 1 45.203  7.733 14.334 
855 11 1 42.712  7.270 14.849 
856 11 1 41.187  6.401 16.229 
857 11 1 40.203  5.131 18.211 
858 11 1 39.034  3.989 20.183 
859 11 1 37.664  2.836 21.960 
860 11 1 36.463  1.599 23.802 
861 11 1 34.996  0.591 25.546 
862 11 1 33.275 47.784 27.029 
863 11 1 31.620 46.560 28.552 
864 11 1 29.951 45.423 30.203 
865 11 1 30.589 43.415 31.649 
866 11 1 31.021 41.407 33.110 
867 11 1 31.425 39.319 34.441 
868 11 1 31.626 37.236 35.861 
869 11 1 31.544 35.372 37.524 
870 11 1 30.928 33.911 39.511 
871 11 1 31.289 32.986 41.520 
872 11 1 32.027 33.545 43.666 
873 11 1 32.653 36.025 43.973 
874 11 1 30.692 37.325 43.435 
875 11 1 31.138 38.351 41.176 
876 11 1 29.881 39.421 39.247 
877 11 1 28.351 40.171 37.288 
878 11 1 26.980 40.941 35.217 
879 11 1 25.460 41.901 33.342 
880 11 1 24.221 43.408 31.675 
881 11 1 25.411 44.534 29.654 
882 11 1 26.736 45.596 27.725 
883 11 1 27.994 46.655 25.740 
884 11 1 29.187 47.656 23.757 
885 11 1 30.539 49.227 22.430 
886 11 1 31.872  2.968 21.547 
887 11 1 33.332  4.885 20.607 
888 11 1 34.902  6.798 20.148 
889 11 1 36.602  7.851 19.004 
890 11 1 36.445  7.384 16.470 
891 11 1 36.189  6.457 14.088 
892 11 1 35.932  5.512 11.783 
893 11 1 35.246  4.164  9.697 
894 11 1 36.094  1.863  9.959 
895 11 1 36.243 48.170 11.044 
896 11 1 35.863 46.601 13.019 
897 11 1 35.924 45.275 15.257 
898 11 1 35.695 43.685 17.184 
899 11 1 35.568 42.098 19.197 
900 11 1 35.666 40.871 21.512 
901 11 1 35.724 39.705 23.840 
902 11 1 35.397 38.214 25.952 
903 11 1 35.433 36.211 27.282 
904 11 1 36.796 34.044 27.818 
905 11 1 37.947 32.066 28.993 
906 11 1 38.304 29.845 29.503 
907 11 1 39.201 28.431 27.520 
908 11 1 40.505 27.195 25.652 
909 12 1 23.008  3.813 41.184 
910 12 1 22.225  5.688 42.695 
911 12 1 21.401  7.636 44.119 
912 12 1 19.434  9.152 43.718 
913 12 1 17.495 10.214 42.746 
914 12 1 15.561 10.330 41.100 
915 12 1 14.644  8.470 39.534 
916 12 1 13.570  6.700 38.048 
917 12 1 12.367  4.878 36.777 
918 12 1 11.088  3.230 35.443 
919 12 1 10.465  1.152 34.700 
920 12 1 10.675 46.900 34.538 
921 12 1 12.834 45.700 33.715 
922 12 1 15.154 44.839 32.957 
923 12 1 17.451 43.809 32.163 
924 12 1 19.732 43.073 31.341 
925 12 1 20.848 40.860 31.744 
926 12 1 22.036 38.642 32.206 
927 12 1 23.326 37.984 34.423 
928 12 1 24.328 36.796 36.497 
929 12 1 25.401 36.427 38.818 
930 12 1 26.473 35.738 41.113 
931 12 1 27.125 35.117 43.462 
932 12 1 27.690 34.436 45.883 
933 12 1 26.859 33.722 47.801 
934 12 1 24.824 33.198 49.223 
935 12 1 23.272 32.013 50.752 
936 12 1 22.308 30.151 52.282 
937 12 1 21.385 28.152 -1.966 
938 12 1 20.655 26.245 -0.509 
939 12 1 19.802 24.072  0.624 
940 12 1 21.331 22.164  1.533 
941 12 1 23.000 20.326  2.063 
942 12 1 22.922 18.324  3.531 
943 12 1 23.410 16.555  5.286 
944 12 1 23.895 14.127  5.029 
945 12 1 26.123 12.907  5.854 
946 12 1 28.335 11.957  6.655 
947 12 1 30.568 10.983  7.760 
948 12 1 32.581  9.958  9.101 
949 12 1 33.768  9.890 11.085 
950 12 1 34.249 10.589 13.492 
951 12 1 33.071 12.393 14.853 
952 12 1 31.917 14.281 16.232 
953 12 1 30.307 15.464 17.843 
954 12 1 28.656 16.455 19.532 
955 12 1 26.783 17.352 21.017 
956 12 1 24.851 18.256 22.431 
957 12 1 24.197 19.962 23.911 
958 12 1 24.581 22.217 24.984 
959 12 1 26.943 23.205 25.628 
960 12 1 29.137 24.214 26.539 
961 12 1 31.310 24.785 26.884 
962 12 1 32.730 22.710 27.590 
963 12 1 33.926 20.456 27.554 
964 12 1 33.773 18.123 27.454 
965 12 1 32.705 15.856 27.599 
966 12 1 31.688 13.412 27.564 
967 12 1 30.556 10.980 28.049 
968 12 1 29.659  8.616 28.822 
969 12 1 28.641  6.678 30.120 
970 12 1 27.372  5.250 31.770 
971 12 1 25.986  4.105 33.539 
972 12 1 23.467  4.090 34.172 
973 12 1 21.207  4.261 35.278 
974 12 1 19.078  4.337 36.725 
975 12 1 18.844  4.235 39.349 
976 12 1 18.199  4.209 41.901 
977 12 1 17.731  4.035 44.438 
978 12 1 17.431  3.536 46.926 
979 12 1 16.690  3.297 49.392 
980 12 1 14.292  3.987 50.203 
981 12 1 12.147  4.737 50.112 
982 12 1 10.618  6.323 49.700 
983 12 1  9.413  8.571 50.342 
984 12 1  8.335 10.891 50.404 
985 12 1  8.540 12.572 52.292 
986 12 1  8.730 14.097 -1.187 