LAMMPS data file generated by aa2cg.

2000 atoms
1 atom types
1975 bonds
1 bond types
1950 angles
1 angle types
1925 dihedrals
1 dihedral types

 0.000 43.754 xlo xhi
 0.000 48.884 ylo yhi
 0.000 55.137 zlo zhi

Masses

1 24.022

Atoms # molecular

1 1 1 17.483 43.730 15.108 
2 1 1 17.499 46.010 19.537 
3 2 1 23.281 15.322 45.562 
4 2 1 33.597 15.580  3.181 
5 3 1 27.168 14.927 42.715 
6 3 1 30.181 14.812 -0.579 
7 4 1 23.625 36.823 24.309 
8 4 1 33.949 26.807  6.354 
9 5 1 16.964 45.730 -0.813 
10 5 1 41.455 36.226 34.842 
11 6 1 26.159  3.229 48.069 
12 6 1 37.575  9.982 44.331 
13 7 1 11.554 17.315 23.386 
14 7 1 24.145 34.796 14.447 
15 8 1 23.184 27.398 30.757 
16 8 1 17.990 40.260 10.434 
17 9 1 10.710 39.250  3.208 
18 9 1 15.173 45.022 29.173 
19 10 1 14.345 12.644 -2.474 
20 10 1 46.396 41.427 31.617 
21 11 1 40.278 11.609 12.208 
22 11 1 14.889 17.109 27.309 
23 12 1  3.070 15.113 26.940 
24 12 1  3.660 29.605 39.537 
25 13 1  9.264 22.023 -1.468 
26 13 1 23.240 33.660 52.101 
27 14 1 39.951 36.364 17.343 
28 14 1 40.296 22.015 32.841 
29 15 1 42.612 26.565 14.554 
30 15 1 30.857 37.931 37.548 
31 16 1 35.703 34.985 27.497 
32 16 1 34.118 13.155 35.130 
33 17 1 12.031 47.127 12.834 
34 17 1 20.018 15.736 34.574 
35 18 1 33.733 15.189 23.884 
36 18 1 37.696 32.684 34.895 
37 19 1  5.800 12.379 23.989 
38 19 1  9.159 27.274 -2.050 
39 20 1 25.477 39.294 16.569 
40 20 1 18.575  2.200 28.124 
41 21 1  8.671 21.285 12.334 
42 21 1 11.845  8.364 17.917 
43 22 1 26.821 13.434  6.429 
44 22 1 36.996 32.147 40.138 
45 23 1 36.994 46.568 45.202 
46 23 1 41.542 23.405 24.387 
47 24 1  6.395  3.614 10.466 
48 24 1 32.775 41.431 -0.512 
49 25 1 34.477 26.943 41.158 
50 25 1  9.247 13.561 51.204 
51 1 1 20.045 43.599 15.606 
52 1 1 22.025 42.370 15.591 
53 1 1 21.891 40.091 14.214 
54 1 1 21.699 38.713 12.333 
55 1 1 21.844 38.090  9.896 
56 1 1 22.186 36.965  7.764 
57 1 1 21.714 35.181  6.273 
58 1 1 20.174 33.828  4.701 
59 1 1 18.475 33.104  2.920 
60 1 1 17.304 33.243  0.807 
61 1 1 16.733 34.072 -1.559 
62 1 1 17.295 36.248 -2.856 
63 1 1 18.432 38.157 51.715 
64 1 1 20.357 39.479 51.093 
65 1 1 22.746 38.458 50.956 
66 1 1 24.882 38.278 51.801 
67 1 1 26.852 39.264 -1.943 
68 1 1 27.153 39.230  0.676 
69 1 1 29.124 38.561  1.105 
70 1 1 30.735 36.513  1.210 
71 1 1 32.206 34.408  1.331 
72 1 1 33.600 32.311  1.517 
73 1 1 34.605 30.055  2.122 
74 1 1 36.169 28.275  2.329 
75 1 1 37.954 27.081  2.987 
76 1 1 39.164 25.278  4.361 
77 1 1 40.469 23.612  5.804 
78 1 1 41.317 22.632  7.974 
79 1 1 42.563 23.300  9.914 
80 1 1 44.506 24.335 11.248 
81 1 1  3.015 24.060 11.604 
82 1 1  4.607 24.359  9.650 
83 1 1  6.256 25.195  7.649 
84 1 1  8.739 24.604  6.982 
85 1 1 11.133 24.549  7.172 
86 1 1 12.281 26.481  6.497 
87 1 1 13.319 27.978  4.668 
88 1 1 14.117 29.506  2.731 
89 1 1 12.711 30.081  0.650 
90 1 1 13.417 31.345 -1.519 
91 1 1 12.648 33.169 -2.782 
92 1 1 12.279 34.954 50.934 
93 1 1 11.834 36.918 49.625 
94 1 1 11.161 38.730 48.211 
95 1 1 11.449 40.251 46.078 
96 1 1 11.160 41.517 43.773 
97 1 1 10.770 42.620 41.334 
98 1 1 12.475 42.977 39.435 
99 1 1 14.087 43.455 37.514 
100 1 1 14.101 42.251 35.253 
101 1 1 13.893 41.205 32.862 
102 1 1 13.724 40.462 30.381 
103 1 1 13.409 39.964 27.880 
104 1 1 13.615 38.631 25.935 
105 1 1 14.351 36.608 24.549 
106 1 1 14.348 35.098 22.803 
107 1 1 14.411 36.348 20.530 
108 1 1 13.996 37.594 18.281 
109 1 1 13.690 38.971 16.167 
110 1 1 12.541 40.894 16.604 
111 1 1 13.439 43.380 16.728 
112 1 1 13.935 45.868 16.767 
113 1 1 14.713 47.849 15.869 
114 1 1 15.437  0.426 13.927 
115 1 1 15.228  1.957 12.053 
116 1 1 14.406  3.864 10.671 
117 1 1 14.285  6.026 10.112 
118 1 1 14.743  8.500 10.740 
119 1 1 15.544 10.772 11.536 
120 1 1 17.382 11.093 13.431 
121 1 1 16.978 10.264 15.685 
122 1 1 16.373  8.918 17.815 
123 1 1 15.123  7.747 19.777 
124 1 1 15.399  5.526 21.108 
125 1 1 15.858  3.472 22.535 
126 1 1 16.623  1.551 23.977 
127 1 1 15.985 48.260 23.284 
128 1 1 15.842 46.442 21.368 
129 2 1 20.801 15.221 44.703 
130 2 1 18.317 15.029 44.244 
131 2 1 16.939 15.739 42.137 
132 2 1 15.654 16.325 39.996 
133 2 1 15.214 17.334 37.936 
134 2 1 15.415 16.739 35.554 
135 2 1 14.553 16.537 33.425 
136 2 1 11.928 16.676 33.313 
137 2 1 10.452 17.595 31.353 
138 2 1  7.851 17.264 31.206 
139 2 1  5.842 16.174 31.112 
140 2 1  4.403 14.104 31.144 
141 2 1  2.552 12.229 31.111 
142 2 1  2.999  9.761 30.325 
143 2 1 45.050  7.994 29.421 
144 2 1 43.832  6.346 27.887 
145 2 1 42.623  5.039 26.066 
146 2 1 41.557  4.803 24.048 
147 2 1 41.359  5.452 21.584 
148 2 1 41.598  5.945 19.068 
149 2 1 42.109  8.194 17.735 
150 2 1 43.061 10.328 16.807 
151 2 1 43.268 11.335 14.442 
152 2 1 45.513 12.127 13.574 
153 2 1 46.540 14.309 13.351 
154 2 1  3.113 16.445 14.319 
155 2 1  3.714 16.887 16.501 
156 2 1  5.209 17.876 18.423 
157 2 1  5.331 18.671 20.598 
158 2 1  6.217 17.614 22.884 
159 2 1  6.957 16.404 25.145 
160 2 1  8.303 15.895 26.869 
161 2 1 10.228 15.151 28.037 
162 2 1 10.166 12.544 28.089 
163 2 1  9.790 10.053 27.447 
164 2 1  9.447  7.667 26.509 
165 2 1  8.909  5.113 26.073 
166 2 1  8.430  2.646 25.726 
167 2 1  8.452  0.879 27.626 
168 2 1  6.857 47.825 27.597 
169 2 1  5.139 46.062 27.399 
170 2 1  3.254 44.307 26.918 
171 2 1 45.002 43.610 25.750 
172 2 1 42.914 43.085 24.965 
173 2 1 40.712 41.708 24.708 
174 2 1 38.383 40.628 24.450 
175 2 1 36.081 39.559 24.420 
176 2 1 33.992 39.087 23.486 
177 2 1 33.861 37.769 21.552 
178 2 1 33.500 35.752 20.004 
179 2 1 33.333 34.071 18.086 
180 2 1 32.886 32.741 15.905 
181 2 1 33.461 31.298 14.207 
182 2 1 34.972 29.505 15.369 
183 2 1 36.787 27.823 14.571 
184 2 1 38.178 26.825 13.097 
185 2 1 39.013 26.655 10.708 
186 2 1 40.184 26.977  8.322 
187 2 1 39.735 28.849  6.637 
188 2 1 39.633 30.820  4.840 
189 2 1 38.793 32.824  3.886 
190 2 1 37.224 34.402  3.097 
191 2 1 36.307 36.298  1.493 
192 2 1 34.813 37.543 -0.128 
193 2 1 35.311 37.977 -2.633 
194 2 1 35.639 38.556 49.956 
195 2 1 35.495 37.031 47.862 
196 2 1 35.153 34.993 46.881 
197 2 1 33.527 33.886 48.527 
198 2 1 32.457 32.699 50.533 
199 2 1 31.437 31.295 52.608 
200 2 1 31.324 28.730 -2.044 
201 2 1 31.138 26.447 -2.519 
202 2 1 31.512 24.181 51.514 
203 2 1 31.636 21.824 51.406 
204 2 1 32.580 19.493 51.917 
205 2 1 32.994 18.400 -0.994 
206 2 1 33.207 17.051  1.105 
207 3 1 27.712 13.015 44.234 
208 3 1 28.394 11.159 45.933 
209 3 1 28.712  9.026 46.629 
210 3 1 29.475  6.617 46.299 
211 3 1 30.815  4.773 46.711 
212 3 1 32.200  4.070 48.753 
213 3 1 33.848  3.331 50.656 
214 3 1 35.543  2.379 52.209 
215 3 1 37.166  1.298 -1.198 
216 3 1 38.704 48.732  0.107 
217 3 1 40.123 47.616  1.987 
218 3 1 41.221 45.779  2.856 
219 3 1 42.636 44.749  0.875 
220 3 1 43.523 42.483  0.365 
221 3 1 44.815 40.419 -0.339 
222 3 1 46.299 38.425 -0.959 
223 3 1  4.099 36.952 -0.393 
224 3 1  4.949 35.301  1.412 
225 3 1  5.731 34.089  3.567 
226 3 1  4.493 33.785  5.804 
227 3 1  3.787 34.601  7.906 
228 3 1  2.455 35.409  9.526 
229 3 1 43.982 35.697 10.669 
230 3 1 41.770 35.788 11.760 
231 3 1 39.419 35.569 12.611 
232 3 1 37.163 35.734 13.651 
233 3 1 35.354 36.379 15.297 
234 3 1 35.906 38.270 17.066 
235 3 1 36.821 39.882 18.784 
236 3 1 38.615 41.243 19.601 
237 3 1 40.804 42.575 19.765 
238 3 1 42.958 43.852 20.180 
239 3 1 45.147 45.082 20.612 
240 3 1 46.206 47.325 19.695 
241 3 1  2.081  0.301 18.572 
242 3 1 44.348  1.803 17.177 
243 3 1 43.696  3.124 15.344 
244 3 1 43.827  1.650 13.540 
245 3 1 41.532  1.524 12.373 
246 3 1 39.418  1.073 10.938 
247 3 1 37.538  1.922  9.850 
248 3 1 35.720  2.934  8.617 
249 3 1 33.659  3.282  7.096 
250 3 1 31.804  3.803  5.317 
251 3 1 30.067  4.630  3.527 
252 3 1 29.782  3.244  1.480 
253 3 1 29.200  1.534 -0.461 
254 3 1 29.301  0.653 -2.633 
255 3 1 29.601  0.407 49.988 
256 3 1 29.530 48.969 47.456 
257 3 1 28.247 47.703 46.034 
258 3 1 25.915 47.219 46.953 
259 3 1 23.599 47.486 47.547 
260 3 1 21.542 48.229 48.587 
261 3 1 19.765 48.876 50.367 
262 3 1 18.180  1.106 52.024 
263 3 1 16.901  2.415 -1.415 
264 3 1 15.176  3.757 -0.533 
265 3 1 12.687  2.903 -0.769 
266 3 1 12.277  2.770 -3.133 
267 3 1 12.225  2.167 49.659 
268 3 1 11.800  1.327 47.332 
269 3 1 13.049  1.079 45.444 
270 3 1 14.833  1.598 43.752 
271 3 1 16.638  2.588 42.377 
272 3 1 18.748  3.495 41.304 
273 3 1 21.044  4.309 40.229 
274 3 1 23.254  4.769 39.006 
275 3 1 25.061  6.407 39.831 
276 3 1 27.105  7.699 40.836 
277 3 1 29.337  8.907 41.413 
278 3 1 31.520  8.373 42.747 
279 3 1 33.272  8.628 44.513 
280 3 1 34.128  8.404 46.950 
281 3 1 34.350  9.125 49.174 
282 3 1 32.208 10.355 50.032 
283 3 1 30.124 11.551 50.698 
284 3 1 30.241 13.257 -2.548 
285 4 1 23.560 39.010 25.304 
286 4 1 22.473 41.023 26.577 
287 4 1 21.848 42.976 28.134 
288 4 1 21.255 44.805 29.884 
289 4 1 20.749 46.724 31.532 
290 4 1 20.204 48.717 33.229 
291 4 1 19.918  1.864 34.839 
292 4 1 19.968  4.102 35.440 
293 4 1 20.258  6.757 35.044 
294 4 1 20.536  9.240 34.790 
295 4 1 21.806 11.298 34.798 
296 4 1 23.992 12.640 34.703 
297 4 1 26.274 13.777 34.307 
298 4 1 28.312 15.150 33.635 
299 4 1 30.380 16.435 32.952 
300 4 1 32.756 17.324 32.415 
301 4 1 35.178 18.028 31.831 
302 4 1 37.427 16.845 32.653 
303 4 1 37.747 14.531 31.877 
304 4 1 37.150 12.066 31.229 
305 4 1 37.534 10.673 29.401 
306 4 1 38.435  9.684 27.170 
307 4 1 38.001  8.197 25.481 
308 4 1 36.846  6.463 24.035 
309 4 1 34.320  5.828 23.730 
310 4 1 32.143  5.913 22.646 
311 4 1 30.212  7.034 21.402 
312 4 1 28.645  8.725 20.282 
313 4 1 27.008 10.092 18.948 
314 4 1 25.715  8.943 17.123 
315 4 1 23.940  7.563 16.359 
316 4 1 21.645  7.959 17.424 
317 4 1 20.901  6.735 19.622 
318 4 1 19.439  4.987 19.253 
319 4 1 18.767  2.817 17.993 
320 4 1 18.537  0.589 16.873 
321 4 1 19.885 -0.408 14.816 
322 4 1 21.362 47.381 12.980 
323 4 1 23.544 46.095 13.201 
324 4 1 25.739 44.766 13.506 
325 4 1 27.944 43.526 13.986 
326 4 1 30.147 42.671 14.600 
327 4 1 32.504 42.046 14.952 
328 4 1 35.072 41.810 14.887 
329 4 1 37.537 41.373 14.899 
330 4 1 40.117 40.991 14.730 
331 4 1 42.642 40.954 14.511 
332 4 1 44.139 38.822 14.113 
333 4 1 46.699 38.554 14.294 
334 4 1  5.198 39.216 14.563 
335 4 1  7.067 40.861 15.212 
336 4 1  8.602 42.522 13.939 
337 4 1  8.212 45.030 14.466 
338 4 1  7.065 47.076 14.351 
339 4 1  4.797 48.272 13.875 
340 4 1  3.792 48.796 11.480 
341 4 1 45.374 48.326 10.301 
342 4 1 43.249 48.402  8.808 
343 4 1 41.016 48.429  7.561 
344 4 1 38.745 48.622  6.267 
345 4 1 36.352 48.663  5.098 
346 4 1 35.496  1.399  3.248 
347 4 1 34.528  3.064  1.605 
348 4 1 33.614  4.856 -0.029 
349 4 1 33.027  6.801 -1.603 
350 4 1 30.670  6.535 -2.421 
351 4 1 28.553  6.632 -3.266 
352 4 1 26.627  7.540 50.587 
353 4 1 24.929  9.172 49.574 
354 4 1 25.142 11.756 49.691 
355 4 1 25.270 14.299 50.128 
356 4 1 25.907 16.357 51.151 
357 4 1 27.212 17.946 -2.416 
358 4 1 28.443 19.743 -1.184 
359 4 1 29.467 21.681  0.061 
360 4 1 30.159 23.579  1.612 
361 4 1 30.883 25.493  3.132 
362 4 1 31.752 27.106  5.018 
363 5 1 18.328 45.581 -3.039 
364 5 1 20.401 44.114 51.322 
365 5 1 22.573 43.071 50.372 
366 5 1 24.792 42.377 49.422 
367 5 1 27.102 41.905 48.188 
368 5 1 27.646 41.812 45.618 
369 5 1 28.672 42.175 43.278 
370 5 1 28.149 41.085 41.300 
371 5 1 27.196 40.799 38.939 
372 5 1 26.883 40.262 36.697 
373 5 1 27.753 39.690 34.325 
374 5 1 28.532 39.226 31.886 
375 5 1 30.819 38.646 32.005 
376 5 1 32.868 37.382 32.789 
377 5 1 35.080 37.188 33.503 
378 5 1 37.258 37.909 34.638 
379 5 1 37.388 40.107 36.082 
380 5 1 38.628 39.911 38.384 
381 5 1 40.085 39.503 40.488 
382 5 1 41.733 39.034 42.354 
383 5 1 43.169 38.292 44.294 
384 5 1 44.966 37.619 45.651 
385 5 1 46.052 38.826 47.369 
386 5 1 45.190 40.301 48.968 
387 5 1 43.621 41.979 50.091 
388 5 1 41.963 43.372 48.614 
389 5 1 40.716 42.230 46.949 
390 5 1 40.758 43.102 44.611 
391 5 1 39.481 43.595 42.661 
392 5 1 37.598 44.213 41.066 
393 5 1 36.116 44.952 39.103 
394 5 1 35.261 45.847 36.890 
395 5 1 35.751 44.555 34.939 
396 5 1 37.339 43.270 33.295 
397 5 1 38.633 44.244 31.343 
398 5 1 40.158 45.411 29.828 
399 5 1 42.469 45.449 30.184 
400 5 1 44.681 46.465 31.394 
401 5 1 44.631 47.741 33.499 
402 5 1 44.138 48.624 35.802 
403 5 1 43.824  0.830 38.115 
404 5 1 43.887  1.821 40.527 
405 5 1 43.838  2.931 42.765 
406 5 1 43.430  4.100 44.990 
407 5 1 43.838  5.225 47.342 
408 5 1 44.367  6.319 49.637 
409 5 1 45.517  7.563 51.505 
410 5 1 46.821  9.417 50.377 
411 5 1  5.193  8.690 48.872 
412 5 1  7.225  7.443 48.054 
413 5 1  9.445  6.736 47.122 
414 5 1 11.657  5.845 46.272 
415 5 1 13.784  7.132 46.539 
416 5 1 15.790  8.679 46.823 
417 5 1 16.369 10.705 47.689 
418 5 1 15.845 13.020 47.634 
419 5 1 15.337 15.189 47.704 
420 5 1 14.193 17.090 49.043 
421 5 1 13.062 16.944 51.504 
422 5 1 10.551 17.480 51.881 
423 5 1  8.372 18.308 51.247 
424 5 1  6.239 19.218 50.981 
425 5 1  4.330 20.566 50.988 
426 5 1  2.946 22.589 50.362 
427 5 1 45.498 24.430 51.191 
428 5 1 44.231 25.940 52.704 
429 5 1 43.139 27.602 -0.885 
430 5 1 41.860 29.628 -0.273 
431 5 1 40.128 31.455 -0.506 
432 5 1 38.395 33.375 -0.806 
433 5 1 37.951 33.702 -2.974 
434 5 1 38.368 33.146 49.855 
435 5 1 39.469 32.722 47.634 
436 5 1 40.692 32.776 45.369 
437 5 1 41.720 33.364 43.188 
438 5 1 41.965 33.851 41.055 
439 5 1 41.586 34.907 39.070 
440 5 1 41.051 35.948 37.052 
441 6 1 25.601  5.234 46.526 
442 6 1 25.085  7.468 45.201 
443 6 1 23.915  9.548 44.249 
444 6 1 22.389 11.379 44.173 
445 6 1 19.832 11.216 43.507 
446 6 1 17.348 11.088 42.989 
447 6 1 15.027 11.661 42.214 
448 6 1 12.696 12.553 41.654 
449 6 1 10.250 13.267 40.997 
450 6 1  7.800 13.206 40.256 
451 6 1  5.378 13.282 39.402 
452 6 1  4.203 15.342 39.429 
453 6 1  3.370 17.528 38.265 
454 6 1  4.538 18.736 36.353 
455 6 1  5.787 20.312 34.608 
456 6 1  4.819 22.535 33.739 
457 6 1  3.252 24.283 34.088 
458 6 1  1.751 25.734 35.550 
459 6 1 44.536 25.455 37.929 
460 6 1 43.556 25.450 40.325 
461 6 1 42.620 25.307 42.853 
462 6 1 43.053 24.545 44.833 
463 6 1 44.771 23.337 46.358 
464 6 1  3.448 22.382 46.067 
465 6 1  5.844 21.679 46.019 
466 6 1  8.344 21.150 46.467 
467 6 1 10.805 20.775 47.130 
468 6 1 11.964 21.909 49.164 
469 6 1 13.354 23.166 50.866 
470 6 1 14.265 24.599 52.742 
471 6 1 14.330 24.198  0.025 
472 6 1 12.263 25.158  1.077 
473 6 1 10.104 25.256  2.162 
474 6 1  7.718 25.332  2.240 
475 6 1  5.251 25.972  1.649 
476 6 1  4.324 27.526 -0.098 
477 6 1  3.910 29.411 -1.262 
478 6 1  3.350 31.893 -1.722 
479 6 1  2.663 33.653 -3.132 
480 6 1 45.618 34.546 49.680 
481 6 1 45.152 33.173 47.645 
482 6 1  2.934 32.198 46.349 
483 6 1  4.912 30.637 46.185 
484 6 1  7.060 29.289 46.189 
485 6 1  9.134 27.797 45.853 
486 6 1 11.147 26.190 45.602 
487 6 1 12.985 24.463 45.176 
488 6 1 14.889 22.860 44.637 
489 6 1 14.809 20.310 44.720 
490 6 1 14.029 18.085 44.470 
491 6 1 12.002 16.369 44.034 
492 6 1  9.927 15.957 45.637 
493 6 1  8.006 15.780 47.336 
494 6 1  6.144 14.041 47.406 
495 6 1  4.447 12.556 46.566 
496 6 1  3.063 11.376 44.743 
497 6 1 46.120  9.734 43.040 
498 6 1 46.144  7.712 41.368 
499 6 1 45.892  5.884 39.546 
500 6 1  3.727  3.786 39.360 
501 6 1  5.705  2.211 39.196 
502 6 1  8.008  1.673 39.418 
503 6 1  9.511  3.123 38.032 
504 6 1 11.041  4.613 36.732 
505 6 1 11.321  7.185 37.004 
506 6 1 11.621  9.699 37.060 
507 6 1 11.508 12.057 36.646 
508 6 1 10.748 14.216 36.362 
509 6 1 10.150 16.590 37.172 
510 6 1  9.289 18.957 37.807 
511 6 1  8.706 19.142 39.954 
512 6 1  7.578 18.204 42.110 
513 6 1  5.323 18.494 43.182 
514 6 1  3.459 16.877 43.826 
515 6 1 45.124 15.608 44.575 
516 6 1 42.731 14.576 45.110 
517 6 1 40.503 13.398 45.561 
518 6 1 38.726 12.116 45.157 
519 7 1 11.512 14.761 23.446 
520 7 1 11.647 12.252 23.529 
521 7 1 11.696  9.743 23.104 
522 7 1 11.418  7.173 22.736 
523 7 1 11.404  4.552 22.657 
524 7 1 11.518  1.955 22.676 
525 7 1 11.664 -0.551 22.864 
526 7 1 12.130 46.342 23.906 
527 7 1 11.878 45.694 26.102 
528 7 1 11.188 45.503 28.492 
529 7 1 10.520 44.479 30.508 
530 7 1  8.177 44.556 31.512 
531 7 1  6.246 44.312 33.227 
532 7 1  5.110 44.919 35.177 
533 7 1  5.049 46.352 37.332 
534 7 1  4.878 46.931 39.793 
535 7 1  4.490 47.468 42.275 
536 7 1  3.393 48.526 44.043 
537 7 1  3.898  2.112 44.317 
538 7 1  5.155  4.077 44.715 
539 7 1  7.191  3.742 43.119 
540 7 1  9.585  4.487 42.482 
541 7 1 11.845  5.370 41.718 
542 7 1 14.137  6.280 41.109 
543 7 1 16.518  7.148 40.749 
544 7 1 18.718  8.162 40.032 
545 7 1 20.973  9.390 39.462 
546 7 1 23.113 10.737 39.042 
547 7 1 25.135 12.250 38.692 
548 7 1 27.245 13.785 38.381 
549 7 1 29.268 15.240 37.884 
550 7 1 31.358 16.665 37.366 
551 7 1 33.337 18.317 36.939 
552 7 1 35.902 17.977 36.835 
553 7 1 38.427 17.298 36.674 
554 7 1 40.742 16.342 36.018 
555 7 1 43.204 15.407 35.486 
556 7 1 45.540 14.639 34.983 
557 7 1  4.227 13.861 35.064 
558 7 1  6.469 13.165 34.543 
559 7 1  7.956 11.821 33.288 
560 7 1  8.902  9.711 32.175 
561 7 1  8.000  8.003 30.402 
562 7 1  6.886  5.691 30.917 
563 7 1  5.613  3.810 29.631 
564 7 1  4.020  2.240 28.202 
565 7 1 45.496  1.442 28.952 
566 7 1 43.449  0.905 27.400 
567 7 1 41.650 -0.091 25.740 
568 7 1 39.717 47.100 26.128 
569 7 1 37.680 46.234 26.779 
570 7 1 35.386 46.007 27.775 
571 7 1 33.587 47.510 28.931 
572 7 1 32.518 48.528 30.715 
573 7 1 34.224 48.146 32.339 
574 7 1 35.474  1.566 32.556 
575 7 1 36.419  3.883 33.002 
576 7 1 37.064  6.174 33.871 
577 7 1 36.881  7.660 35.674 
578 7 1 35.537  8.197 37.825 
579 7 1 35.524  6.884 40.090 
580 7 1 35.398  5.075 41.858 
581 7 1 33.489  3.575 42.627 
582 7 1 33.806  2.110 44.673 
583 7 1 33.920  0.206 46.397 
584 7 1 33.957 47.149 48.104 
585 7 1 32.982 47.059 50.452 
586 7 1 33.713 45.598 52.104 
587 7 1 34.622 46.540 -0.758 
588 7 1 35.521 45.214  1.331 
589 7 1 35.448 43.633  3.027 
590 7 1 34.179 41.686  4.168 
591 7 1 32.582 39.956  5.281 
592 7 1 31.030 38.149  6.278 
593 7 1 29.633 36.326  7.332 
594 7 1 27.432 36.673  8.582 
595 7 1 26.160 37.181 10.486 
596 7 1 25.263 36.421 12.791 
597 8 1 20.898 27.730 31.609 
598 8 1 18.562 28.844 31.725 
599 8 1 16.300 30.007 31.684 
600 8 1 13.962 31.034 31.855 
601 8 1 11.569 31.955 32.197 
602 8 1  8.908 32.516 32.277 
603 8 1  7.894 32.097 30.018 
604 8 1  7.248 32.102 27.727 
605 8 1  6.281 32.949 25.468 
606 8 1  3.840 32.706 24.569 
607 8 1 45.268 32.387 23.455 
608 8 1 43.055 32.140 22.096 
609 8 1 43.085 32.930 19.682 
610 8 1 45.007 34.151 18.997 
611 8 1  3.729 34.352 18.159 
612 8 1  5.654 35.424 17.511 
613 8 1  7.412 37.328 17.755 
614 8 1  8.444 38.714 19.671 
615 8 1  9.250 41.073 19.216 
616 8 1  9.600 43.573 18.641 
617 8 1  9.974 46.062 18.152 
618 8 1 10.526 48.743 18.351 
619 8 1 11.524  2.189 18.075 
620 8 1 13.186  3.667 17.281 
621 8 1 15.123  4.591 15.732 
622 8 1 17.088  5.611 14.270 
623 8 1 19.051  6.653 13.080 
624 8 1 20.728  8.329 12.912 
625 8 1 21.974 10.514 13.794 
626 8 1 23.481 12.398 14.595 
627 8 1 25.483 13.355 15.254 
628 8 1 28.092 13.356 15.428 
629 8 1 29.748 11.646 14.507 
630 8 1 31.229 10.244 16.000 
631 8 1 32.630  8.462 17.200 
632 8 1 33.752  6.455 18.397 
633 8 1 34.526  4.120 19.252 
634 8 1 36.995  3.285 19.189 
635 8 1 37.951  2.675 16.993 
636 8 1 37.261  2.625 14.745 
637 8 1 35.111  3.970 14.239 
638 8 1 33.108  3.853 12.609 
639 8 1 31.226  3.776 10.916 
640 8 1 29.092  3.719  9.409 
641 8 1 27.768  2.998  7.594 
642 8 1 27.150  1.570  5.562 
643 8 1 26.792  0.158  3.496 
644 8 1 26.014 46.606  3.225 
645 8 1 24.989 44.306  3.007 
646 8 1 24.094 43.530  0.724 
647 8 1 22.192 41.915  0.324 
648 8 1 19.900 41.415  0.378 
649 8 1 17.472 41.798  1.329 
650 8 1 15.871 42.631  3.096 
651 8 1 14.733 43.846  4.976 
652 8 1 13.206 45.289  6.558 
653 8 1 13.555 47.754  6.917 
654 8 1 14.535  1.003  7.052 
655 8 1 16.382  2.764  6.476 
656 8 1 16.686  3.791  4.111 
657 8 1 18.801  4.952  3.413 
658 8 1 20.496  6.735  3.055 
659 8 1 22.389  8.470  2.760 
660 8 1 23.136 10.647  3.094 
661 8 1 23.141 13.072  3.501 
662 8 1 22.795 15.527  4.000 
663 8 1 22.212 17.934  4.742 
664 8 1 21.425 20.094  6.060 
665 8 1 21.059 22.178  7.439 
666 8 1 18.829 23.561  7.247 
667 8 1 16.777 24.326  8.673 
668 8 1 14.792 25.335  9.996 
669 8 1 14.949 27.659 11.099 
670 8 1 14.959 30.094 12.142 
671 8 1 14.995 32.526 12.838 
672 8 1 14.706 34.818 14.003 
673 8 1 14.993 36.830 12.730 
674 8 1 16.476 38.433 11.412 
675 9 1  8.063 39.131  3.413 
676 9 1  5.456 38.878  3.814 
677 9 1  3.070 38.500  4.519 
678 9 1 44.511 37.418  5.050 
679 9 1 42.101 36.533  5.742 
680 9 1 41.862 34.289  7.007 
681 9 1 41.856 32.195  8.532 
682 9 1 42.954 30.362  9.452 
683 9 1 44.827 28.406  9.569 
684 9 1  3.301 29.070  9.135 
685 9 1  5.519 29.760  8.738 
686 9 1  7.192 30.210  6.862 
687 9 1  8.822 30.348  4.864 
688 9 1  8.451 30.911  2.348 
689 9 1  7.950 31.355 -0.108 
690 9 1  7.669 31.794 -2.585 
691 9 1  7.477 32.517 50.019 
692 9 1  9.468 32.767 48.281 
693 9 1 11.533 32.662 46.747 
694 9 1 13.777 32.250 46.398 
695 9 1 16.128 31.590 47.136 
696 9 1 18.105 33.144 47.596 
697 9 1 19.256 35.133 47.523 
698 9 1 20.334 37.254 46.529 
699 9 1 20.627 37.832 44.018 
700 9 1 21.340 37.578 41.765 
701 9 1 23.671 38.645 41.372 
702 9 1 25.269 37.349 42.409 
703 9 1 26.095 36.387 44.620 
704 9 1 26.984 36.081 47.083 
705 9 1 27.789 35.809 49.523 
706 9 1 28.457 35.082 51.864 
707 9 1 27.146 34.733 -1.093 
708 9 1 26.196 33.829  1.141 
709 9 1 26.490 34.738  3.501 
710 9 1 28.153 33.688  4.766 
711 9 1 30.354 32.827  5.548 
712 9 1 32.686 32.112  6.111 
713 9 1 34.938 31.215  6.617 
714 9 1 35.731 31.345  8.755 
715 9 1 36.779 31.103 10.814 
716 9 1 38.724 31.209 12.476 
717 9 1 40.680 31.557 14.173 
718 9 1 42.833 32.923 14.950 
719 9 1 45.371 32.482 14.292 
720 9 1  4.176 32.399 13.777 
721 9 1  6.331 32.270 12.658 
722 9 1  7.550 34.189 11.886 
723 9 1  8.863 36.430 12.230 
724 9 1 10.216 38.695 12.270 
725 9 1 11.449 40.957 12.167 
726 9 1 13.039 43.058 11.931 
727 9 1 15.016 44.573 11.124 
728 9 1 16.953 46.070 10.276 
729 9 1 18.768 47.623  9.211 
730 9 1 19.852  0.857 10.252 
731 9 1 20.358  3.068  9.605 
732 9 1 19.586  5.444  8.883 
733 9 1 18.705  7.507  7.725 
734 9 1 16.850  8.905  7.020 
735 9 1 15.273 10.923  6.564 
736 9 1 13.860 13.190  6.424 
737 9 1 13.075 14.662  8.339 
738 9 1 12.187 14.870 10.322 
739 9 1 12.083 14.138 12.802 
740 9 1 12.383 13.505 15.296 
741 9 1 12.666 12.418 17.646 
742 9 1 14.212 13.265 19.368 
743 9 1 15.461 13.980 21.507 
744 9 1 16.377 14.684 23.933 
745 9 1 15.789 13.403 26.147 
746 9 1 14.895 11.820 27.781 
747 9 1 14.109  9.571 26.714 
748 9 1 15.254  7.321 26.631 
749 9 1 14.255  4.992 27.421 
750 9 1 13.018  2.772 27.778 
751 9 1 14.185  0.727 28.676 
752 9 1 15.129 47.521 29.803 
753 10 1 16.521 13.640 51.629 
754 10 1 17.593 15.314 52.788 
755 10 1 18.937 16.755 -1.095 
756 10 1 20.573 18.784 -0.703 
757 10 1 22.580 19.569  0.108 
758 10 1 24.626 19.201  1.586 
759 10 1 26.958 18.588  2.750 
760 10 1 29.101 19.008  3.367 
761 10 1 30.624 20.046  4.653 
762 10 1 30.227 22.151  6.115 
763 10 1 31.631 22.842  8.264 
764 10 1 30.457 22.466 10.262 
765 10 1 31.513 20.882 12.062 
766 10 1 32.796 19.127 13.496 
767 10 1 34.657 18.242 14.670 
768 10 1 35.330 19.861 16.605 
769 10 1 37.014 19.178 18.120 
770 10 1 38.192 18.282 20.215 
771 10 1 38.232 15.862 21.194 
772 10 1 38.499 13.536 22.255 
773 10 1 38.728 11.253 22.193 
774 10 1 38.752  8.939 20.803 
775 10 1 38.149  8.562 18.285 
776 10 1 37.644  8.511 15.902 
777 10 1 36.136  8.467 13.785 
778 10 1 34.330  8.526 11.876 
779 10 1 32.419  8.377 10.261 
780 10 1 30.683  8.110  8.494 
781 10 1 29.009  7.701  6.724 
782 10 1 27.129  6.711  5.210 
783 10 1 25.203  5.615  3.931 
784 10 1 24.849  4.819  1.451 
785 10 1 24.611  3.513 -0.829 
786 10 1 24.542  1.853 -2.805 
787 10 1 24.152 48.169 -2.673 
788 10 1 22.445 47.034 -1.506 
789 10 1 21.059 47.265  0.377 
790 10 1 21.370 49.277  1.910 
791 10 1 21.750  1.763  3.990 
792 10 1 23.130  1.921  5.830 
793 10 1 23.246 -0.352  7.105 
794 10 1 23.354 46.344  8.413 
795 10 1 23.122 43.846  9.176 
796 10 1 25.031 42.161  9.767 
797 10 1 27.171 41.401  9.997 
798 10 1 29.784 41.398  9.680 
799 10 1 32.316 41.912  9.849 
800 10 1 34.441 41.063 10.072 
801 10 1 36.537 40.195 10.246 
802 10 1 39.108 39.869 10.328 
803 10 1 41.699 39.820 10.125 
804 10 1 44.313 39.814  9.807 
805 10 1  3.073 39.469  9.410 
806 10 1  5.444 38.756  8.710 
807 10 1  7.713 37.549  8.129 
808 10 1  8.158 35.497  6.626 
809 10 1 10.095 34.954  4.977 
810 10 1 12.468 34.370  4.054 
811 10 1 14.209 33.098  5.565 
812 10 1 15.509 32.708  7.453 
813 10 1 17.011 33.357  9.398 
814 10 1 18.807 34.240 11.080 
815 10 1 19.679 34.943 13.119 
816 10 1 19.839 35.572 15.684 
817 10 1 18.669 37.493 16.879 
818 10 1 17.824 39.521 18.096 
819 10 1 16.937 41.487 19.425 
820 10 1 14.773 41.610 20.810 
821 10 1 12.588 41.725 22.205 
822 10 1 10.502 41.685 23.721 
823 10 1  8.900 41.227 25.805 
824 10 1  7.104 40.526 27.109 
825 10 1  5.357 39.180 27.836 
826 10 1  4.383 36.904 28.633 
827 10 1  3.518 35.414 30.179 
828 10 1  4.774 35.619 32.437 
829 10 1  4.760 37.713 33.346 
830 10 1  4.142 40.085 33.294 
831 11 1 41.652 11.329  9.953 
832 11 1 41.542 13.221  8.208 
833 11 1 42.141 13.184  5.704 
834 11 1 42.655 13.409  3.175 
835 11 1 43.654 12.995  1.028 
836 11 1 44.580 12.685 -1.132 
837 11 1 44.374 12.579 51.469 
838 11 1 44.245 12.457 48.884 
839 11 1 43.365 10.560 47.275 
840 11 1 42.530  8.948 45.450 
841 11 1 41.898  7.548 43.308 
842 11 1 41.460  6.211 41.126 
843 11 1 41.604  7.093 38.707 
844 11 1 41.476  5.026 37.206 
845 11 1 39.215  3.776 37.369 
846 11 1 36.770  2.989 37.246 
847 11 1 34.890  1.802 38.094 
848 11 1 33.745  0.551 39.945 
849 11 1 32.459 48.265 41.859 
850 11 1 32.640 45.916 42.709 
851 11 1 31.062 44.771 44.367 
852 11 1 31.747 44.308 46.807 
853 11 1 30.245 43.829 48.852 
854 11 1 29.143 43.953 51.205 
855 11 1 28.222 44.475 -1.576 
856 11 1 29.837 45.467  0.124 
857 11 1 31.183 47.172  1.499 
858 11 1 31.250 47.611  4.036 
859 11 1 32.067 47.278  6.181 
860 11 1 33.697 46.296  8.062 
861 11 1 35.847 45.026  7.474 
862 11 1 38.265 44.086  6.998 
863 11 1 40.698 43.546  6.509 
864 11 1 43.183 42.981  6.262 
865 11 1 45.814 43.089  6.194 
866 11 1  4.627 43.074  6.374 
867 11 1  7.178 42.611  6.621 
868 11 1  9.611 41.958  6.884 
869 11 1 12.031 41.109  7.176 
870 11 1 13.772 39.463  7.560 
871 11 1 12.753 37.317  8.645 
872 11 1 11.892 34.935  9.081 
873 11 1 11.251 32.449  9.584 
874 11 1 10.367 30.082  9.956 
875 11 1  9.843 27.554 10.322 
876 11 1  8.007 26.720 11.879 
877 11 1  6.130 26.869 13.232 
878 11 1  6.405 27.685 15.552 
879 11 1  7.577 28.210 17.478 
880 11 1  9.155 27.756 19.163 
881 11 1  9.936 27.458 21.293 
882 11 1  9.911 26.905 23.633 
883 11 1 10.271 26.694 25.867 
884 11 1 11.311 27.613 28.105 
885 11 1 12.544 27.304 30.126 
886 11 1 13.580 26.106 32.332 
887 11 1 15.127 25.472 34.296 
888 11 1 17.131 25.779 35.409 
889 11 1 19.271 26.334 36.349 
890 11 1 21.516 25.165 35.897 
891 11 1 23.567 23.999 35.058 
892 11 1 25.905 24.159 34.553 
893 11 1 27.557 25.512 33.372 
894 11 1 28.491 27.074 31.557 
895 11 1 29.383 29.000 30.140 
896 11 1 28.208 30.353 28.316 
897 11 1 26.847 32.048 26.915 
898 11 1 24.670 33.119 26.440 
899 11 1 22.794 31.398 26.974 
900 11 1 21.633 29.460 26.990 
901 11 1 20.801 27.179 26.873 
902 11 1 19.695 25.021 27.844 
903 11 1 18.158 24.850 29.894 
904 11 1 15.974 24.085 29.116 
905 11 1 14.077 23.182 27.556 
906 11 1 11.865 22.688 27.172 
907 11 1 11.722 20.463 27.816 
908 11 1 12.989 18.328 27.213 
909 12 1 44.757 15.686 25.577 
910 12 1 42.428 15.683 25.214 
911 12 1 39.935 15.440 26.026 
912 12 1 37.582 15.248 26.848 
913 12 1 35.179 15.037 27.875 
914 12 1 32.689 14.826 28.640 
915 12 1 30.068 14.956 28.901 
916 12 1 27.575 14.661 29.223 
917 12 1 25.172 13.908 29.532 
918 12 1 22.711 13.266 29.633 
919 12 1 20.292 12.938 30.198 
920 12 1 18.121 12.006 31.174 
921 12 1 15.652 11.309 31.547 
922 12 1 14.055  9.888 32.111 
923 12 1 12.785  7.877 32.297 
924 12 1 11.973  5.804 32.445 
925 12 1 11.305  3.464 32.419 
926 12 1  9.636  1.607 31.861 
927 12 1  7.784  0.469 32.456 
928 12 1  5.420 48.856 33.272 
929 12 1  4.674  1.490 34.985 
930 12 1  4.763  3.990 34.323 
931 12 1  6.614  5.735 35.278 
932 12 1  7.070  7.694 36.878 
933 12 1  7.538  8.409 39.061 
934 12 1  8.469  8.777 41.251 
935 12 1  8.928  9.498 43.339 
936 12 1  9.285 10.489 45.246 
937 12 1 10.600 12.095 46.781 
938 12 1 11.743 10.884 48.441 
939 12 1 12.147  9.235 50.372 
940 12 1 12.302  7.362 52.202 
941 12 1 11.900  7.697 -0.445 
942 12 1 10.049  6.626  0.924 
943 12 1  8.190  5.803  2.528 
944 12 1  6.533  5.199  4.407 
945 12 1  4.372  4.940  5.358 
946 12 1  2.631  5.916  3.701 
947 12 1 44.753  6.840  1.868 
948 12 1 43.043  8.097  0.267 
949 12 1 41.228  9.578 -0.868 
950 12 1 39.578 11.074 -2.159 
951 12 1 39.208 10.205 50.902 
952 12 1 39.580  8.904 48.936 
953 12 1 39.070  7.207 47.022 
954 12 1 38.698  5.013 45.593 
955 12 1 38.660  2.848 44.178 
956 12 1 38.664  0.562 43.083 
957 12 1 39.149 -0.054 40.682 
958 12 1 39.298 48.335 38.190 
959 12 1 39.432 47.991 35.642 
960 12 1 39.804 48.662 33.540 
961 12 1 40.066  1.573 31.670 
962 12 1 41.975  2.835 32.197 
963 12 1 43.609  4.106 33.120 
964 12 1 44.661  6.152 33.954 
965 12 1 45.797  8.311 34.837 
966 12 1  3.469  9.496 36.232 
967 12 1 45.834 10.622 37.733 
968 12 1 44.578 12.582 38.887 
969 12 1 43.559 14.484 40.343 
970 12 1 41.211 14.903 39.871 
971 12 1 38.959 14.822 41.141 
972 12 1 37.037 15.732 42.146 
973 12 1 35.402 17.416 41.177 
974 12 1 33.208 18.326 42.300 
975 12 1 30.822 18.302 42.616 
976 12 1 29.375 19.931 41.927 
977 12 1 27.697 21.557 41.689 
978 12 1 25.434 22.597 40.949 
979 12 1 23.126 23.587 40.296 
980 12 1 20.681 24.261 40.009 
981 12 1 18.253 24.892 39.775 
982 12 1 15.844 25.714 39.575 
983 12 1 13.481 26.549 39.555 
984 12 1 10.970 27.254 39.642 
985 12 1  8.474 27.994 39.778 
986 12 1  6.052 28.884 39.621 