LAMMPS data file generated by aa2cg.

2000 atoms
1 atom types
1975 bonds
1 bond types
1950 angles
1 angle types
1925 dihedrals
1 dihedral types

 0.000 60.994 xlo xhi
 0.000 36.477 ylo yhi
 0.000 52.737 zlo zhi

Masses

1 24.022

Atoms # molecular

1 1 1 22.286 32.161 42.057 
2 1 1 45.735 34.797 10.677 
3 2 1  1.330 15.423  3.991 
4 2 1 52.377 11.828 23.380 
5 3 1  8.994 10.268  6.712 
6 3 1 32.948 28.379 19.776 
7 4 1 12.288 25.233 20.789 
8 4 1 -2.578 35.829 26.792 
9 5 1 12.458 22.008 36.740 
10 5 1 16.481  7.625 24.930 
11 6 1 33.787 33.628  9.937 
12 6 1 24.592 22.026 42.221 
13 7 1 -4.775 19.266 27.902 
14 7 1 17.595 40.756 48.924 
15 8 1 37.947 38.678 38.726 
16 8 1 14.502 39.059 34.986 
17 9 1  1.498 42.657  0.813 
18 9 1 40.363 32.089 34.551 
19 10 1 17.510 33.600  4.754 
20 10 1 19.099 12.909 47.490 
21 11 1 30.495 10.143 21.084 
22 11 1 -3.821 29.727 48.297 
23 12 1 13.674  7.833 28.684 
24 12 1 24.187 41.133 40.469 
25 13 1 41.824 20.256 49.873 
26 13 1  5.484 29.310 34.767 
27 14 1 44.209 24.796 19.886 
28 14 1  3.511 29.027 16.174 
29 15 1 13.871 33.509 12.177 
30 15 1  0.967 20.720 13.818 
31 16 1 52.845 42.843 37.830 
32 16 1 48.854 17.119  6.529 
33 17 1 33.443 26.223  5.443 
34 17 1 54.078 42.892 20.295 
35 18 1 44.166 19.817 26.187 
36 18 1 10.302 17.501 12.700 
37 19 1 15.444 21.116  6.085 
38 19 1 29.404  8.717 48.324 
39 20 1 27.494 41.873 45.764 
40 20 1  9.542 38.092 21.440 
41 21 1 25.333 21.816 21.248 
42 21 1  6.523 19.484 37.508 
43 22 1 37.990  8.758 13.976 
44 22 1  3.118  9.722 30.047 
45 23 1 20.830 29.415 18.207 
46 23 1 20.130 40.046  9.094 
47 24 1 15.451 39.648 21.162 
48 24 1 -4.685 22.532 32.054 
49 25 1 53.642 16.855  9.010 
50 25 1 47.733 19.075 32.727 
51 1 1 20.866 31.990 39.863 
52 1 1 19.242 31.774 37.873 
53 1 1 17.568 30.912 36.104 
54 1 1 15.519 32.169 35.267 
55 1 1 13.451 33.253 34.350 
56 1 1 11.849 34.788 33.967 
57 1 1 10.250 36.414 34.181 
58 1 1  7.797 37.232 34.297 
59 1 1  5.377 38.094 34.397 
60 1 1  3.084 39.173 34.962 
61 1 1  0.448 39.224 34.595 
62 1 1 -1.999 39.252 33.792 
63 1 1 -4.437 39.929 33.102 
64 1 1 -6.679 39.232 34.044 
65 1 1 52.091 38.687 35.012 
66 1 1 50.105 38.136 36.675 
67 1 1 49.286 40.003 38.223 
68 1 1 48.385 41.723 39.898 
69 1 1 47.561  6.815 41.747 
70 1 1 46.613  8.504 43.497 
71 1 1 44.155  8.900 44.143 
72 1 1 41.709  8.974 44.755 
73 1 1 40.643  7.591 46.230 
74 1 1 38.844  5.926 46.798 
75 1 1 37.606 40.826 48.161 
76 1 1 37.062 39.105 49.995 
77 1 1 36.973 37.496 -0.651 
78 1 1 38.022 38.075  1.599 
79 1 1 38.131 39.129  3.658 
80 1 1 38.107 41.329  4.394 
81 1 1 39.582  6.333  5.245 
82 1 1 42.043 42.351  4.841 
83 1 1 42.885 40.096  5.209 
84 1 1 43.650 37.682  4.868 
85 1 1 42.999 35.666  3.203 
86 1 1 41.828 33.803  2.520 
87 1 1 39.695 32.395  2.465 
88 1 1 37.498 32.897  1.181 
89 1 1 36.243 32.916 -0.695 
90 1 1 35.282 32.989 49.892 
91 1 1 33.399 33.435 48.113 
92 1 1 31.803 34.859 46.737 
93 1 1 30.414 36.560 45.338 
94 1 1 29.816 37.725 43.382 
95 1 1 29.356 38.728 41.334 
96 1 1 29.409 40.902 40.670 
97 1 1 30.301  6.798 40.873 
98 1 1 30.814  9.268 41.581 
99 1 1 31.233 11.743 42.170 
100 1 1 32.121 14.136 42.103 
101 1 1 31.550 16.182 43.628 
102 1 1 33.180 17.472 45.172 
103 1 1 31.994 18.484 46.917 
104 1 1 30.648 18.295 49.154 
105 1 1 29.979 18.428 51.622 
106 1 1 28.956 18.932  1.101 
107 1 1 27.464 17.580  2.737 
108 1 1 27.115 16.718  4.797 
109 1 1 27.688 15.844  7.197 
110 1 1 28.042 15.431  9.770 
111 1 1 28.255 15.479 12.377 
112 1 1 27.821 15.254 14.803 
113 1 1 27.631 12.873 15.870 
114 1 1 27.189 10.594 17.074 
115 1 1 26.641  8.331 17.886 
116 1 1 26.137  5.977 18.531 
117 1 1 26.803 40.527 19.797 
118 1 1 28.769 38.895 20.223 
119 1 1 29.648 37.750 22.345 
120 1 1 31.285 35.804 22.386 
121 1 1 32.860 34.374 21.479 
122 1 1 34.028 33.015 19.588 
123 1 1 35.168 31.539 17.903 
124 1 1 36.232 30.559 15.772 
125 1 1 37.831 30.685 14.191 
126 1 1 39.916 31.550 13.033 
127 1 1 41.754 32.256 11.335 
128 1 1 43.957 32.893 10.144 
129 2 1  3.026 16.262  2.243 
130 2 1  4.666 17.345  0.605 
131 2 1  5.385 17.833 -1.512 
132 2 1  4.919 18.091 48.771 
133 2 1  4.088 18.405 46.292 
134 2 1  3.565 16.897 44.205 
135 2 1  1.536 15.783 44.043 
136 2 1 -0.203 14.010 44.325 
137 2 1 -2.136 12.491 44.726 
138 2 1 -4.199 11.094 45.090 
139 2 1 -6.327  9.715 45.746 
140 2 1 -6.262  7.470 46.798 
141 2 1 54.282 41.584 47.816 
142 2 1 51.995 40.707 48.445 
143 2 1 49.671 39.730 48.862 
144 2 1 47.511 38.527 49.516 
145 2 1 46.070 36.908 48.113 
146 2 1 44.590 35.326 46.734 
147 2 1 44.518 33.904 44.929 
148 2 1 45.078 32.969 42.699 
149 2 1 47.244 31.749 41.845 
150 2 1 48.858 29.848 40.966 
151 2 1 51.230 30.001 39.875 
152 2 1 52.058 30.413 37.431 
153 2 1 53.628 28.885 35.959 
154 2 1 55.323 27.417 34.611 
155 2 1 -3.929 26.000 34.615 
156 2 1 -2.082 24.642 35.615 
157 2 1 -1.957 24.530 38.285 
158 2 1 -1.959 23.983 40.866 
159 2 1 -0.909 24.809 43.143 
160 2 1  0.049 25.360 45.493 
161 2 1  1.147 25.713 47.792 
162 2 1  1.521 26.818 49.855 
163 2 1  1.117 28.984 -1.474 
164 2 1 -0.843 29.510  0.192 
165 2 1 -0.644 31.158  2.123 
166 2 1 -0.558 32.455  4.319 
167 2 1 -0.602 34.344  5.647 
168 2 1 -0.877 36.845  6.261 
169 2 1 -1.068 39.469  6.568 
170 2 1 -1.122 42.032  7.105 
171 2 1 -2.504  7.289  5.741 
172 2 1 -4.307  8.662  4.442 
173 2 1 -6.368  9.834  3.435 
174 2 1 52.365 11.027  2.714 
175 2 1 50.121 11.098  4.050 
176 2 1 47.658 10.915  4.819 
177 2 1 45.522 10.449  5.958 
178 2 1 43.033 10.459  6.698 
179 2 1 40.487 10.515  7.291 
180 2 1 38.051 10.748  8.091 
181 2 1 35.725 11.380  8.781 
182 2 1 33.363 12.232  9.424 
183 2 1 32.168 11.646 11.728 
184 2 1 31.876 10.518 13.772 
185 2 1 33.975 11.299 14.400 
186 2 1 36.334 12.267 14.085 
187 2 1 37.105 13.926 12.279 
188 2 1 37.287 16.003 11.193 
189 2 1 36.588 18.410 10.623 
190 2 1 36.018 20.848  9.949 
191 2 1 36.088 22.321  8.190 
192 2 1 38.330 23.553  7.727 
193 2 1 40.674 24.776  7.475 
194 2 1 42.434 25.953  8.294 
195 2 1 44.076 26.773 10.125 
196 2 1 45.965 27.708 11.472 
197 2 1 47.899 28.185 13.257 
198 2 1 48.708 29.332 15.097 
199 2 1 48.907 31.304 16.619 
200 2 1 49.306 33.451 17.933 
201 2 1 49.343 34.834 20.168 
202 2 1 49.317 37.273 20.768 
203 2 1 49.259 39.752 21.416 
204 2 1 49.201 42.163 22.315 
205 2 1 49.276  8.148 23.148 
206 2 1 50.363 10.193 23.399 
207 3 1  9.779 12.739  7.128 
208 3 1 10.153 13.136  9.473 
209 3 1  9.821 13.176 11.952 
210 3 1  9.810 13.634 14.476 
211 3 1 10.093 14.529 16.839 
212 3 1 10.573 15.229 19.198 
213 3 1 10.796 16.092 21.663 
214 3 1 10.916 16.290 24.209 
215 3 1 11.407 16.891 26.647 
216 3 1 11.841 17.977 29.031 
217 3 1 12.096 19.293 31.207 
218 3 1 13.140 21.614 31.630 
219 3 1 14.530 23.473 31.299 
220 3 1 16.660 23.776 30.199 
221 3 1 17.444 22.016 28.480 
222 3 1 17.077 20.379 26.826 
223 3 1 15.710 19.062 25.150 
224 3 1 15.206 17.953 23.131 
225 3 1 15.461 16.858 20.904 
226 3 1 15.435 15.996 18.469 
227 3 1 15.156 14.895 16.168 
228 3 1 14.697 13.816 13.800 
229 3 1 14.328 12.850 11.508 
230 3 1 14.437 11.860  9.143 
231 3 1 14.356 10.812  6.802 
232 3 1 14.485  9.653  4.521 
233 3 1 14.498  8.398  2.327 
234 3 1 13.344  7.343  0.670 
235 3 1 11.340  8.901  0.090 
236 3 1  9.079 10.076 -0.458 
237 3 1  6.930 11.420 -1.060 
238 3 1  4.904 12.875 -1.722 
239 3 1  2.961 14.121 49.784 
240 3 1  1.032 15.241 48.430 
241 3 1 -1.587 15.253 48.644 
242 3 1 -3.694 15.900 47.236 
243 3 1 -6.071 15.905 46.034 
244 3 1 52.530 15.931 45.063 
245 3 1 50.231 16.382 44.229 
246 3 1 47.992 17.132 43.239 
247 3 1 46.179 18.558 42.529 
248 3 1 44.576 19.757 44.035 
249 3 1 42.411 19.992 44.732 
250 3 1 39.914 19.746 44.800 
251 3 1 37.350 19.614 44.658 
252 3 1 36.113 18.480 42.585 
253 3 1 35.845 17.893 40.363 
254 3 1 36.593 18.272 37.943 
255 3 1 37.193 18.116 35.610 
256 3 1 35.088 17.610 34.243 
257 3 1 32.938 17.890 32.797 
258 3 1 30.814 18.361 31.436 
259 3 1 28.805 19.514 30.997 
260 3 1 28.430 21.035 33.116 
261 3 1 28.182 22.140 35.527 
262 3 1 27.812 22.630 38.010 
263 3 1 26.668 24.719 39.036 
264 3 1 25.169 26.444 40.132 
265 3 1 25.871 28.691 40.656 
266 3 1 26.479 31.195 40.409 
267 3 1 25.294 32.839 38.778 
268 3 1 26.014 35.183 37.924 
269 3 1 27.464 36.783 37.307 
270 3 1 29.903 37.500 36.898 
271 3 1 32.094 38.494 36.547 
272 3 1 34.158 37.914 35.025 
273 3 1 36.203 37.224 33.784 
274 3 1 38.203 36.305 32.380 
275 3 1 39.986 37.668 31.125 
276 3 1 39.840 38.307 28.602 
277 3 1 40.894 37.084 26.576 
278 3 1 41.361 35.380 25.095 
279 3 1 41.331 32.795 24.590 
280 3 1 40.070 30.917 25.868 
281 3 1 40.263 28.520 24.874 
282 3 1 38.304 27.129 23.758 
283 3 1 36.183 26.910 22.852 
284 3 1 33.893 27.618 22.077 
285 4 1 12.357 25.126 18.521 
286 4 1 12.012 25.871 16.305 
287 4 1 11.959 27.250 14.229 
288 4 1 11.400 27.450 12.041 
289 4 1 10.752 26.349  9.826 
290 4 1 11.097 25.643  7.623 
291 4 1 13.451 25.799  6.862 
292 4 1 15.833 26.048  6.016 
293 4 1 18.196 26.581  5.282 
294 4 1 20.698 27.105  5.062 
295 4 1 23.256 27.425  5.063 
296 4 1 25.722 26.856  4.563 
297 4 1 27.606 26.156  6.283 
298 4 1 29.227 25.144  8.025 
299 4 1 30.989 25.485  9.595 
300 4 1 32.976 26.583 10.760 
301 4 1 34.346 28.475  9.845 
302 4 1 36.046 30.276  9.090 
303 4 1 38.433 30.024  8.520 
304 4 1 40.372 29.507  6.941 
305 4 1 42.411 31.040  6.409 
306 4 1 44.550 32.369  6.008 
307 4 1 46.754 33.733  5.445 
308 4 1 48.937 34.726  5.082 
309 4 1 51.385 35.245  4.538 
310 4 1 53.656 35.541  3.595 
311 4 1 -4.809 35.804  3.295 
312 4 1 -3.832 34.276  1.672 
313 4 1 -3.887 32.994 -0.590 
314 4 1 -5.994 33.318 -1.559 
315 4 1 52.801 33.880 51.271 
316 4 1 50.585 33.951 -0.328 
317 4 1 48.315 34.143 -0.081 
318 4 1 45.950 34.520 -1.098 
319 4 1 44.215 32.767 -1.894 
320 4 1 41.640 32.841 50.555 
321 4 1 40.382 33.035 48.707 
322 4 1 38.775 34.424 47.179 
323 4 1 37.123 35.623 45.590 
324 4 1 35.539 36.671 44.029 
325 4 1 35.516 39.166 43.203 
326 4 1 35.512 41.485 42.364 
327 4 1 34.735 41.927 40.191 
328 4 1 34.645 41.642 37.686 
329 4 1 36.414  6.598 36.870 
330 4 1 38.924 42.637 36.254 
331 4 1 41.506 42.385 35.992 
332 4 1 44.031 42.269 35.538 
333 4 1 46.585 41.929 35.316 
334 4 1 48.953 42.347 34.526 
335 4 1 51.033 42.911 33.271 
336 4 1 53.054  6.920 31.882 
337 4 1 55.342  7.503 30.661 
338 4 1 -3.780  9.071 31.369 
339 4 1 -2.325 11.103 31.910 
340 4 1 -0.364 12.701 32.746 
341 4 1  1.295 14.506 33.553 
342 4 1  3.048 14.991 34.843 
343 4 1  5.018 14.374 36.474 
344 4 1  6.289 14.652 38.308 
345 4 1  6.812 16.332 40.344 
346 4 1  7.233 18.343 41.977 
347 4 1  8.193 19.223 43.969 
348 4 1  9.767 19.179 46.034 
349 4 1 11.447 17.419 46.298 
350 4 1 12.429 15.515 45.525 
351 4 1 11.576 14.588 43.260 
352 4 1 11.034 13.709 40.811 
353 4 1 10.387 12.842 38.490 
354 4 1  9.766 11.799 36.180 
355 4 1  9.104 10.494 34.006 
356 4 1  8.847  9.437 31.671 
357 4 1  9.355  8.609 29.256 
358 4 1  7.647  7.075 28.401 
359 4 1  5.664 41.820 28.477 
360 4 1  3.632 40.150 28.382 
361 4 1  1.495 38.659 28.038 
362 4 1 -0.510 37.093 27.339 
363 5 1 10.428 21.420 35.339 
364 5 1  8.677 20.621 33.701 
365 5 1  6.992 19.657 31.984 
366 5 1  5.303 18.215 30.711 
367 5 1  3.719 16.585 29.609 
368 5 1  2.105 15.382 28.148 
369 5 1 -0.087 15.691 28.853 
370 5 1 -1.116 16.763 30.573 
371 5 1 -1.398 17.704 32.993 
372 5 1 -1.932 18.991 35.053 
373 5 1 -2.452 20.527 37.118 
374 5 1 -2.315 19.859 39.596 
375 5 1 -1.935 19.835 42.139 
376 5 1 -1.130 20.078 44.479 
377 5 1  0.111 20.580 46.715 
378 5 1  1.079 20.834 49.001 
379 5 1  1.309 20.204 51.242 
380 5 1 -1.048 19.575 -0.587 
381 5 1 -1.790 17.170 -0.016 
382 5 1 -2.706 14.703 -0.062 
383 5 1 -2.663 13.165  1.963 
384 5 1 -1.483 11.687  3.556 
385 5 1  0.295 10.952  5.202 
386 5 1  1.691  9.678  6.979 
387 5 1  3.953  9.760  6.410 
388 5 1  5.038 10.320  8.344 
389 5 1  5.210 10.635 10.638 
390 5 1  4.513 11.522 12.981 
391 5 1  2.643 10.602 14.444 
392 5 1  0.868  9.763 16.148 
393 5 1 -1.143 11.061 16.992 
394 5 1 -3.022 10.413 18.631 
395 5 1 -3.641 11.690 20.874 
396 5 1 -4.444 13.859 20.419 
397 5 1 -4.218 16.269 19.487 
398 5 1 -4.309 18.477 18.357 
399 5 1 -2.712 20.522 18.019 
400 5 1 -1.542 22.410 18.552 
401 5 1 -2.640 24.645 19.536 
402 5 1 -4.503 25.309 21.203 
403 5 1 54.290 26.182 22.333 
404 5 1 52.475 27.146 23.898 
405 5 1 52.877 28.029 26.183 
406 5 1 50.955 28.681 27.535 
407 5 1 48.691 28.757 28.725 
408 5 1 47.376 26.649 29.311 
409 5 1 46.203 24.471 29.807 
410 5 1 44.422 22.570 29.896 
411 5 1 43.523 20.876 31.627 
412 5 1 42.766 19.354 33.614 
413 5 1 42.163 17.186 34.988 
414 5 1 41.352 15.131 36.392 
415 5 1 40.890 12.781 37.390 
416 5 1 41.562 10.710 38.093 
417 5 1 43.200  9.137 39.324 
418 5 1 45.589  9.466 39.371 
419 5 1 47.931  9.818 38.115 
420 5 1 49.926 10.739 36.825 
421 5 1 50.833 12.459 35.541 
422 5 1 50.947 14.622 34.096 
423 5 1 49.724 15.315 32.039 
424 5 1 49.598 15.338 29.708 
425 5 1 49.565 13.961 27.738 
426 5 1 48.441 12.139 26.218 
427 5 1 46.506 10.393 26.717 
428 5 1 44.399  9.668 27.283 
429 5 1 41.912 10.015 27.750 
430 5 1 39.655 10.955 28.498 
431 5 1 37.477 11.988 29.250 
432 5 1 35.318 12.994 30.083 
433 5 1 32.879 13.553 30.841 
434 5 1 30.311 13.929 31.372 
435 5 1 28.740 14.462 29.418 
436 5 1 26.419 13.971 28.813 
437 5 1 24.203 13.155 27.831 
438 5 1 21.853 12.138 27.151 
439 5 1 19.829 10.842 26.251 
440 5 1 17.817  9.540 25.461 
441 6 1 31.748 32.077 10.547 
442 6 1 30.214 30.103 11.259 
443 6 1 27.856 29.425 10.492 
444 6 1 26.047 29.759  9.059 
445 6 1 25.198 30.961  7.005 
446 6 1 23.632 32.277  5.408 
447 6 1 22.222 33.223  3.575 
448 6 1 20.981 33.813  1.463 
449 6 1 19.803 34.380 -0.753 
450 6 1 18.450 35.301 49.986 
451 6 1 16.983 36.242 47.957 
452 6 1 15.371 36.980 46.092 
453 6 1 13.531 38.144 44.798 
454 6 1 11.462 38.955 43.546 
455 6 1 10.791 41.216 42.654 
456 6 1  9.850  6.982 41.965 
457 6 1  8.644  9.095 41.198 
458 6 1  7.431  9.224 39.123 
459 6 1  6.045  9.430 37.397 
460 6 1  3.898  9.914 36.189 
461 6 1  2.277  9.745 34.610 
462 6 1  0.167  8.275 34.999 
463 6 1 -1.981  7.034 35.695 
464 6 1 -3.645  6.883 37.286 
465 6 1 -2.484 42.909 39.524 
466 6 1 -3.287  6.316 41.945 
467 6 1 -4.151 41.713 44.163 
468 6 1 -2.877 39.800 44.795 
469 6 1 -1.831 37.446 44.659 
470 6 1 -0.737 35.041 44.299 
471 6 1  1.343 34.022 43.262 
472 6 1  3.216 32.551 42.362 
473 6 1  5.386 31.802 41.811 
474 6 1  7.656 31.047 41.451 
475 6 1  9.568 29.401 40.746 
476 6 1 11.486 27.703 40.306 
477 6 1 13.207 25.833 40.378 
478 6 1 15.052 24.063 40.552 
479 6 1 17.472 23.367 40.703 
480 6 1 19.318 24.420 39.107 
481 6 1 21.089 25.572 37.670 
482 6 1 22.190 27.441 37.338 
483 6 1 22.764 29.507 36.779 
484 6 1 22.684 31.594 35.292 
485 6 1 22.276 33.869 34.328 
486 6 1 22.075 36.359 33.981 
487 6 1 22.876 38.557 34.373 
488 6 1 24.458 40.211 35.530 
489 6 1 25.490 42.292 35.845 
490 6 1 26.258  8.258 35.357 
491 6 1 26.734 10.294 36.159 
492 6 1 26.864 11.737 38.313 
493 6 1 26.847 13.292 40.226 
494 6 1 27.357 14.214 42.519 
495 6 1 27.784 14.739 44.992 
496 6 1 28.263 14.961 47.495 
497 6 1 26.981 16.053 49.484 
498 6 1 25.664 15.075 51.453 
499 6 1 24.379 14.412  0.913 
500 6 1 22.594 13.970  2.652 
501 6 1 20.981 13.224  4.451 
502 6 1 19.125 12.557  6.211 
503 6 1 18.623 13.739  8.427 
504 6 1 19.101 14.621 10.583 
505 6 1 19.754 15.149 12.811 
506 6 1 19.801 16.293 14.863 
507 6 1 20.397 18.065 16.571 
508 6 1 20.514 18.871 18.768 
509 6 1 20.026 19.029 21.262 
510 6 1 20.366 20.015 23.262 
511 6 1 21.326 21.698 24.866 
512 6 1 21.902 22.564 26.858 
513 6 1 21.993 22.611 29.303 
514 6 1 22.214 22.977 31.783 
515 6 1 23.281 22.942 33.825 
516 6 1 22.939 21.433 35.649 
517 6 1 22.087 20.597 37.955 
518 6 1 23.146 21.350 40.151 
519 7 1 -5.551 21.691 27.212 
520 7 1 54.046 23.039 25.872 
521 7 1 51.473 22.800 26.079 
522 7 1 48.871 23.094 26.075 
523 7 1 47.377 24.725 24.895 
524 7 1 46.005 26.471 23.740 
525 7 1 44.240 28.245 22.990 
526 7 1 43.503 30.321 22.189 
527 7 1 43.755 32.783 21.316 
528 7 1 43.921 35.286 20.400 
529 7 1 44.149 37.285 22.024 
530 7 1 44.273 39.151 23.771 
531 7 1 43.126 40.849 25.064 
532 7 1 41.046 42.063 25.995 
533 7 1 38.981  6.896 26.818 
534 7 1 36.553  7.220 27.627 
535 7 1 34.563  8.630 26.990 
536 7 1 32.288  9.859 26.465 
537 7 1 29.994 10.920 26.649 
538 7 1 27.800  9.373 26.584 
539 7 1 25.355  8.536 26.736 
540 7 1 23.507  7.099 26.666 
541 7 1 22.104 41.650 25.824 
542 7 1 20.184 40.554 25.133 
543 7 1 17.917 40.023 25.267 
544 7 1 15.824 39.176 26.231 
545 7 1 13.560 39.137 26.476 
546 7 1 11.235 40.223 26.304 
547 7 1  9.158 40.431 25.312 
548 7 1  6.762 39.982 24.520 
549 7 1  5.278 37.990 23.955 
550 7 1  3.687 35.901 23.857 
551 7 1  2.231 33.807 24.262 
552 7 1  0.693 31.833 24.896 
553 7 1  0.117 30.986 27.339 
554 7 1 -0.580 30.577 29.821 
555 7 1 -1.253 30.389 32.311 
556 7 1 -1.861 30.004 34.832 
557 7 1 -2.578 30.760 37.231 
558 7 1 -3.211 32.174 39.362 
559 7 1 -3.322 34.085 41.078 
560 7 1 -4.862 33.444 42.834 
561 7 1 53.988 32.108 43.824 
562 7 1 52.275 31.787 45.351 
563 7 1 52.892 30.322 47.362 
564 7 1 53.252 28.965 49.527 
565 7 1 53.689 27.100 50.688 
566 7 1 53.228 24.778 50.278 
567 7 1 52.470 23.705 48.077 
568 7 1 51.424 22.682 45.931 
569 7 1 50.892 22.710 43.649 
570 7 1 51.036 23.642 41.260 
571 7 1 50.773 24.578 38.881 
572 7 1 50.179 25.681 36.658 
573 7 1 48.913 26.739 34.632 
574 7 1 49.944 28.469 33.138 
575 7 1 51.508 29.702 31.817 
576 7 1 53.706 30.544 30.770 
577 7 1 -5.430 31.131 29.291 
578 7 1 -3.896 31.343 27.176 
579 7 1 -3.919 30.292 24.882 
580 7 1 -3.487 29.346 22.478 
581 7 1 -1.036 29.235 21.716 
582 7 1  0.948 30.026 21.057 
583 7 1  2.635 31.895 20.230 
584 7 1  4.421 33.726 19.650 
585 7 1  4.728 34.009 17.340 
586 7 1  5.625 33.448 15.022 
587 7 1  6.188 33.022 12.480 
588 7 1  8.441 32.571 11.714 
589 7 1  9.629 34.340 10.311 
590 7 1 11.406 35.468  8.813 
591 7 1 13.308 36.546  7.378 
592 7 1 15.826 36.985  7.845 
593 7 1 16.762 37.934  5.881 
594 7 1 17.130 38.405  3.468 
595 7 1 17.515 39.087  1.074 
596 7 1 17.561 40.008 -1.364 
597 8 1 39.066 37.643 37.039 
598 8 1 41.192 37.247 35.729 
599 8 1 43.536 37.336 34.702 
600 8 1 45.827 37.428 33.730 
601 8 1 48.276 37.666 32.844 
602 8 1 49.157 38.463 30.536 
603 8 1 51.641 38.976 29.944 
604 8 1 54.005 39.633 29.257 
605 8 1 -4.566 40.265 28.531 
606 8 1 -2.664 41.487 28.805 
607 8 1 -0.654 42.242 30.281 
608 8 1  1.565  6.175 31.487 
609 8 1  3.935  6.424 32.436 
610 8 1  6.457  6.297 33.132 
611 8 1  8.333  5.900 34.873 
612 8 1 10.189 42.162 36.520 
613 8 1 12.146 41.603 38.163 
614 8 1 13.834 40.911 39.839 
615 8 1 15.712 40.723 41.549 
616 8 1 17.563 40.384 43.258 
617 8 1 19.286 39.711 45.105 
618 8 1 20.750 38.951 47.099 
619 8 1 22.028 38.274 49.148 
620 8 1 23.387 37.428 51.133 
621 8 1 24.605 36.501  0.466 
622 8 1 25.792 34.318  0.921 
623 8 1 26.925 32.049  1.241 
624 8 1 27.622 29.682  1.507 
625 8 1 28.717 27.411  1.440 
626 8 1 29.090 25.088  1.283 
627 8 1 30.001 23.670  2.892 
628 8 1 31.027 22.105  4.356 
629 8 1 31.574 20.061  5.793 
630 8 1 32.299 18.060  7.138 
631 8 1 32.525 16.942  9.218 
632 8 1 32.479 16.700 11.690 
633 8 1 32.255 16.411 14.180 
634 8 1 34.026 17.155 15.505 
635 8 1 36.228 17.177 16.789 
636 8 1 37.623 17.719 18.520 
637 8 1 39.107 19.284 19.966 
638 8 1 40.391 20.601 21.716 
639 8 1 41.708 22.344 23.104 
640 8 1 41.826 23.642 24.937 
641 8 1 41.421 24.519 27.456 
642 8 1 39.175 25.388 28.483 
643 8 1 36.702 25.469 29.209 
644 8 1 34.407 25.300 28.738 
645 8 1 32.440 25.358 27.039 
646 8 1 30.707 25.544 25.086 
647 8 1 28.930 25.218 23.218 
648 8 1 29.482 24.218 20.901 
649 8 1 30.109 23.223 18.611 
650 8 1 28.321 22.113 17.196 
651 8 1 26.523 20.786 15.870 
652 8 1 25.139 19.176 14.581 
653 8 1 23.489 17.753 13.193 
654 8 1 23.928 16.152 11.151 
655 8 1 23.010 16.369  8.818 
656 8 1 21.957 17.085  6.613 
657 8 1 21.008 18.835  5.400 
658 8 1 20.641 21.313  4.819 
659 8 1 21.391 23.205  3.583 
660 8 1 22.574 24.552  1.774 
661 8 1 24.106 25.545  0.033 
662 8 1 25.745 26.359 -1.754 
663 8 1 27.092 27.955 49.900 
664 8 1 28.045 30.270 49.516 
665 8 1 29.176 32.515 49.091 
666 8 1 28.642 34.766 50.236 
667 8 1 27.207 36.002 48.796 
668 8 1 25.907 36.365 46.568 
669 8 1 24.703 36.763 44.326 
670 8 1 23.341 36.779 42.055 
671 8 1 21.811 36.604 39.947 
672 8 1 20.281 36.246 37.995 
673 8 1 18.644 36.420 36.505 
674 8 1 16.594 37.626 35.685 
675 9 1 -1.018  6.520  0.372 
676 9 1 -3.516  7.099 -0.135 
677 9 1 -5.997  7.346 -0.688 
678 9 1 52.403  7.575 -0.937 
679 9 1 49.811  7.923 -1.210 
680 9 1 48.648 10.122 -0.334 
681 9 1 48.408 12.358 -0.731 
682 9 1 48.965 14.604 -0.735 
683 9 1 49.268 16.797  0.410 
684 9 1 49.298 18.770  2.104 
685 9 1 48.941 20.604  3.856 
686 9 1 48.710 22.400  5.712 
687 9 1 48.695 24.313  7.443 
688 9 1 50.182 26.410  7.604 
689 9 1 51.682 28.465  7.561 
690 9 1 53.179 30.537  7.245 
691 9 1 54.775 32.515  6.753 
692 9 1 -5.446 34.115  8.411 
693 9 1 -5.312 36.652  8.624 
694 9 1 -5.222 39.100  8.351 
695 9 1 -5.691 41.417  8.404 
696 9 1 55.314  7.221  8.990 
697 9 1 -4.686  9.503  9.712 
698 9 1 -4.005 11.662  9.310 
699 9 1 -3.465 13.587  7.645 
700 9 1 -3.167 15.579  6.030 
701 9 1 -3.133 17.749  4.666 
702 9 1 -2.571 19.957  4.531 
703 9 1 -1.645 22.098  5.383 
704 9 1 -0.529 24.094  6.632 
705 9 1  1.848 24.400  7.577 
706 9 1  4.334 25.172  8.174 
707 9 1  5.356 25.479 10.578 
708 9 1  6.459 27.533 11.565 
709 9 1  7.337 28.689 13.655 
710 9 1  8.272 29.376 15.948 
711 9 1  9.271 30.011 18.137 
712 9 1 10.577 30.266 20.259 
713 9 1 12.120 30.215 22.373 
714 9 1 12.813 29.448 24.471 
715 9 1 13.029 27.772 26.367 
716 9 1 13.526 25.446 26.223 
717 9 1 13.969 23.163 25.707 
718 9 1 12.220 22.088 24.113 
719 9 1 10.712 20.988 22.328 
720 9 1  8.998 19.591 21.024 
721 9 1  8.050 19.681 18.676 
722 9 1  6.740 17.807 17.591 
723 9 1  5.496 15.860 16.578 
724 9 1  4.967 13.696 17.247 
725 9 1  3.902 12.249 19.116 
726 9 1  2.049 13.131 20.438 
727 9 1  0.721 15.051 21.442 
728 9 1  1.349 16.753 23.187 
729 9 1  1.820 18.555 24.954 
730 9 1  2.774 20.455 26.433 
731 9 1  3.946 22.118 27.956 
732 9 1  5.157 23.702 29.593 
733 9 1  5.976 24.261 31.731 
734 9 1  6.605 24.470 33.988 
735 9 1  7.872 25.597 35.895 
736 9 1 10.345 26.433 35.947 
737 9 1 12.636 26.264 35.540 
738 9 1 13.554 27.485 33.353 
739 9 1 14.337 28.841 31.395 
740 9 1 15.145 30.379 29.491 
741 9 1 15.810 31.975 27.602 
742 9 1 17.463 31.113 26.113 
743 9 1 19.801 31.218 27.417 
744 9 1 21.835 31.220 29.045 
745 9 1 23.845 31.243 30.668 
746 9 1 26.016 31.295 32.146 
747 9 1 27.376 31.769 33.909 
748 9 1 28.964 32.539 35.380 
749 9 1 31.427 32.443 36.169 
750 9 1 33.498 32.247 34.804 
751 9 1 36.021 32.433 35.544 
752 9 1 38.437 31.922 36.228 
753 10 1 17.855 31.495  3.862 
754 10 1 18.404 30.092  1.825 
755 10 1 19.317 28.718 -0.128 
756 10 1 21.628 29.141 -1.139 
757 10 1 23.614 30.424 -1.383 
758 10 1 23.534 32.321 50.008 
759 10 1 22.849 33.555 48.150 
760 10 1 21.416 34.419 46.258 
761 10 1 19.763 35.051 44.426 
762 10 1 17.818 35.346 42.665 
763 10 1 15.985 35.532 40.932 
764 10 1 14.021 36.095 39.447 
765 10 1 11.936 36.932 38.050 
766 10 1  9.714 38.187 38.580 
767 10 1  7.567 39.605 38.508 
768 10 1  5.283 40.958 38.397 
769 10 1  2.982 42.120 38.708 
770 10 1  1.723  7.435 39.348 
771 10 1  1.542  9.691 40.625 
772 10 1  3.326 11.207 41.634 
773 10 1  4.809 12.411 43.337 
774 10 1  6.168 13.387 45.238 
775 10 1  7.557 14.720 46.966 
776 10 1  8.847 15.683 49.045 
777 10 1  9.431 16.131 51.585 
778 10 1 10.203 18.475 -0.382 
779 10 1 10.578 20.915  0.273 
780 10 1 10.407 23.480  0.673 
781 10 1 10.042 25.972  1.096 
782 10 1  9.487 28.425  1.866 
783 10 1  8.930 30.835  2.769 
784 10 1  8.523 33.113  3.792 
785 10 1  8.340 35.430  4.782 
786 10 1  8.060 37.752  5.732 
787 10 1  8.048 40.001  7.040 
788 10 1  8.312 42.003  8.600 
789 10 1  8.480  7.468 10.413 
790 10 1  8.105  7.429 12.948 
791 10 1  7.609  8.101 15.336 
792 10 1  5.972  8.587 16.927 
793 10 1  3.932  7.912 18.296 
794 10 1  1.863  7.386 19.714 
795 10 1 -0.408  7.379 20.942 
796 10 1 -2.769  7.365 21.983 
797 10 1 -4.378  8.116 23.349 
798 10 1 -5.063  9.224 25.584 
799 10 1 -6.383  9.964 27.395 
800 10 1 52.448 10.209 28.894 
801 10 1 50.498 10.544 30.473 
802 10 1 48.658  8.839 31.113 
803 10 1 46.447  9.377 32.275 
804 10 1 44.337  9.495 33.776 
805 10 1 42.193 10.648 33.002 
806 10 1 39.728 10.109 33.313 
807 10 1 37.190  9.951 33.779 
808 10 1 35.101  9.556 33.338 
809 10 1 33.285  9.031 31.566 
810 10 1 31.146  8.948 30.780 
811 10 1 28.582  9.515 31.053 
812 10 1 26.047  9.549 31.203 
813 10 1 23.975  8.481 31.266 
814 10 1 22.296  6.477 31.059 
815 10 1 21.995 40.926 29.392 
816 10 1 20.339 38.915 29.394 
817 10 1 18.795 36.901 29.658 
818 10 1 17.379 35.204 30.813 
819 10 1 18.351 33.425 31.815 
820 10 1 18.963 31.082 32.229 
821 10 1 19.739 28.741 32.698 
822 10 1 18.345 26.754 33.571 
823 10 1 17.184 24.655 34.422 
824 10 1 18.472 22.318 34.498 
825 10 1 17.814 20.177 35.767 
826 10 1 18.191 18.830 37.597 
827 10 1 18.200 18.612 39.928 
828 10 1 17.593 17.978 41.967 
829 10 1 17.876 16.403 43.841 
830 10 1 18.257 14.592 45.609 
831 11 1 30.209  8.035 22.426 
832 11 1 30.255  5.906 23.802 
833 11 1 30.501 40.296 25.211 
834 11 1 30.906 38.076 26.368 
835 11 1 30.506 36.472 27.959 
836 11 1 28.733 35.161 27.282 
837 11 1 27.096 34.031 25.745 
838 11 1 25.007 33.007 24.581 
839 11 1 22.882 31.920 23.485 
840 11 1 20.729 30.974 22.273 
841 11 1 19.055 32.465 21.742 
842 11 1 17.265 34.177 22.408 
843 11 1 15.438 35.913 23.117 
844 11 1 13.263 35.254 24.141 
845 11 1 10.784 35.003 24.686 
846 11 1  8.609 34.059 24.865 
847 11 1  7.538 32.866 22.882 
848 11 1  5.797 30.959 22.839 
849 11 1  6.247 28.682 21.706 
850 11 1  6.589 26.625 20.085 
851 11 1  7.331 25.040 18.338 
852 11 1  7.849 23.776 16.106 
853 11 1  8.457 22.933 13.689 
854 11 1 10.124 22.510 12.118 
855 11 1 12.541 22.468 11.302 
856 11 1 14.882 22.492 10.228 
857 11 1 16.850 24.077  9.636 
858 11 1 19.005 25.446  9.758 
859 11 1 20.464 27.046 10.726 
860 11 1 21.536 28.860 12.084 
861 11 1 22.619 31.047 12.740 
862 11 1 24.353 32.294 13.422 
863 11 1 26.792 33.277 13.038 
864 11 1 27.647 34.568 10.888 
865 11 1 29.547 36.277 10.858 
866 11 1 31.278 38.210 10.879 
867 11 1 32.648 39.870 11.770 
868 11 1 33.916 40.818 13.446 
869 11 1 35.831 41.019 15.079 
870 11 1 37.933 41.233 16.576 
871 11 1 39.436 41.528 18.691 
872 11 1 40.889 42.379 20.266 
873 11 1 41.964  7.829 21.632 
874 11 1 40.539  9.712 22.866 
875 11 1 38.435 10.489 23.604 
876 11 1 36.671  8.658 22.951 
877 11 1 35.002  6.705 22.655 
878 11 1 33.988 41.537 21.591 
879 11 1 34.011 39.736 20.057 
880 11 1 33.998 38.110 18.373 
881 11 1 31.753 37.791 17.184 
882 11 1 29.540 36.932 16.208 
883 11 1 27.314 37.252 15.712 
884 11 1 25.152 38.397 15.231 
885 11 1 24.842 40.701 14.064 
886 11 1 24.397 42.549 12.329 
887 11 1 22.142  7.132 11.759 
888 11 1 21.687  8.869  9.861 
889 11 1 22.209 10.412  8.122 
890 11 1 24.050 11.325  6.558 
891 11 1 25.820 11.924  4.821 
892 11 1 27.549 12.565  3.036 
893 11 1 29.139 13.078  1.128 
894 11 1 30.520 13.466 -0.877 
895 11 1 32.254 13.945 49.974 
896 11 1 34.502 14.098 48.691 
897 11 1 36.173 16.052 48.397 
898 11 1 38.812 16.273 48.320 
899 11 1 41.392 16.446 48.071 
900 11 1 43.927 16.754 48.052 
901 11 1 46.449 17.446 48.107 
902 11 1 49.022 17.998 48.125 
903 11 1 51.539 18.589 48.301 
904 11 1 53.968 19.360 48.306 
905 11 1 -4.646 20.285 48.488 
906 11 1 -3.221 22.485 48.879 
907 11 1 -2.690 24.672 48.936 
908 11 1 -3.246 27.146 48.558 
909 12 1 14.606  9.814 29.404 
910 12 1 16.778 11.152 29.661 
911 12 1 19.090 11.493 30.529 
912 12 1 21.330 12.285 31.565 
913 12 1 23.466 13.118 32.575 
914 12 1 25.726 13.965 33.557 
915 12 1 27.162 14.596 35.118 
916 12 1 26.059 16.641 36.182 
917 12 1 25.287 17.063 38.635 
918 12 1 24.515 17.196 41.059 
919 12 1 23.875 17.613 43.520 
920 12 1 22.915 17.747 45.878 
921 12 1 21.639 17.331 48.102 
922 12 1 20.688 16.691 50.367 
923 12 1 20.648 16.733  0.061 
924 12 1 21.973 18.741  0.899 
925 12 1 23.598 20.173  0.973 
926 12 1 25.703 21.487  0.159 
927 12 1 26.694 21.252 -2.232 
928 12 1 27.163 21.006 48.026 
929 12 1 27.533 20.334 45.542 
930 12 1 28.155 19.729 43.183 
931 12 1 29.024 19.243 40.828 
932 12 1 30.495 17.910 39.225 
933 12 1 31.135 16.243 37.591 
934 12 1 31.720 14.305 36.400 
935 12 1 31.442 12.167 37.418 
936 12 1 31.667  9.915 36.105 
937 12 1 31.798  7.367 35.702 
938 12 1 29.755  5.731 35.684 
939 12 1 28.971 40.899 33.530 
940 12 1 27.880 40.879 31.483 
941 12 1 27.036 40.800 29.342 
942 12 1 26.757 39.679 27.094 
943 12 1 26.091 38.550 24.912 
944 12 1 25.319 37.394 22.728 
945 12 1 24.871 35.992 20.468 
946 12 1 24.625 34.810 18.223 
947 12 1 26.035 32.757 17.652 
948 12 1 28.024 31.531 17.045 
949 12 1 30.501 31.552 16.433 
950 12 1 32.145 33.196 15.277 
951 12 1 33.987 34.816 14.423 
952 12 1 36.081 36.367 13.992 
953 12 1 38.507 36.916 13.119 
954 12 1 40.352 38.161 14.348 
955 12 1 41.623 40.105 14.681 
956 12 1 42.259 42.592 14.347 
957 12 1 43.645  7.936 14.901 
958 12 1 42.733  9.614 16.675 
959 12 1 43.956 11.550 16.881 
960 12 1 45.083 13.670 16.059 
961 12 1 46.880 14.678 14.900 
962 12 1 49.293 14.653 14.042 
963 12 1 51.778 14.511 13.511 
964 12 1 54.343 14.571 13.116 
965 12 1 -4.057 14.582 12.799 
966 12 1 -1.769 14.279 13.626 
967 12 1  0.109 15.046 14.706 
968 12 1 -0.631 16.548 16.607 
969 12 1  0.895 18.002 18.054 
970 12 1  2.318 19.550 19.460 
971 12 1  3.812 21.071 20.907 
972 12 1  5.339 22.622 22.266 
973 12 1  7.181 23.502 23.885 
974 12 1  7.713 25.722 24.994 
975 12 1  8.401 27.800 26.261 
976 12 1  9.450 29.850 27.604 
977 12 1 10.957 31.776 28.418 
978 12 1 12.265 33.882 29.194 
979 12 1 13.478 36.040 29.961 
980 12 1 14.655 38.243 30.697 
981 12 1 16.076 40.387 31.096 
982 12 1 17.732 42.309 31.573 
983 12 1 17.324  6.555 33.864 
984 12 1 18.267 42.231 36.164 
985 12 1 19.817 41.697 37.986 
986 12 1 21.929 41.539 39.383 