LAMMPS data file generated by aa2cg.

2000 atoms
1 atom types
1975 bonds
1 bond types
1950 angles
1 angle types
1925 dihedrals
1 dihedral types

 0.000 50.176 xlo xhi
 0.000 37.532 ylo yhi
 0.000 62.507 zlo zhi

Masses

1 24.022

Atoms # molecular

1 1 1 27.726 39.826 11.337 
2 1 1 23.191 23.866 21.255 
3 2 1 22.555 21.276 43.010 
4 2 1 41.147 32.728 29.735 
5 3 1 16.612 29.749 37.329 
6 3 1 38.718 19.934 11.598 
7 4 1 27.817 38.855  0.739 
8 4 1 25.340 19.000 46.730 
9 5 1 41.846 22.603 44.311 
10 5 1 19.715 15.420 48.810 
11 6 1  7.717 18.863 40.093 
12 6 1 49.202 10.485 26.522 
13 7 1  9.491 17.481 23.742 
14 7 1 45.894 12.271 35.784 
15 8 1 31.763 17.257 -2.553 
16 8 1 37.093 42.533 34.145 
17 9 1 49.010 33.892 50.963 
18 9 1 27.327  5.886 28.541 
19 10 1 11.280 29.114 56.126 
20 10 1  7.083 25.106 -7.116 
21 11 1 43.282 38.294 44.437 
22 11 1 16.553 18.247  9.705 
23 12 1 11.594 12.911 41.850 
24 12 1  0.547 37.943  4.794 
25 13 1 13.212 30.658 11.668 
26 13 1 32.559 41.483  8.642 
27 14 1 49.219  9.395 14.116 
28 14 1 44.023 40.333 36.604 
29 15 1 38.537 15.466 22.797 
30 15 1  0.896 33.804 34.926 
31 16 1 41.039 29.502 14.250 
32 16 1 43.727 42.048 21.015 
33 17 1 41.911 28.511 18.845 
34 17 1 13.073 11.732 30.882 
35 18 1 45.008 35.950 30.736 
36 18 1 17.157 26.869 -1.357 
37 19 1 37.420 33.835 26.372 
38 19 1 26.640 15.897 -2.983 
39 20 1  3.967 16.453 35.401 
40 20 1 28.542  9.511 13.647 
41 21 1 37.817 29.675 42.972 
42 21 1 27.839 32.905 42.099 
43 22 1 47.998 34.827 -1.952 
44 22 1 46.900 38.354 23.900 
45 23 1 17.935 39.948 27.069 
46 23 1 41.423 10.902  6.989 
47 24 1 18.072 18.750 53.297 
48 24 1 34.538 32.994 -4.369 
49 25 1  7.867 16.975 49.651 
50 25 1 38.216 27.047 34.265 
51 1 1 26.343 38.525 12.621 
52 1 1 25.716 36.970 14.488 
53 1 1 25.119 35.339 16.479 
54 1 1 25.454 33.435 17.720 
55 1 1 26.167 31.611 19.189 
56 1 1 26.465 32.665 21.572 
57 1 1 27.005 33.336 23.958 
58 1 1 28.474 32.087 25.346 
59 1 1 29.770 30.209 25.431 
60 1 1 30.672 29.866 23.283 
61 1 1 31.138 30.240 21.108 
62 1 1 31.274 30.265 18.702 
63 1 1 31.762 29.417 16.382 
64 1 1 32.437 28.582 14.000 
65 1 1 32.917 27.877 11.461 
66 1 1 32.876 27.321  9.036 
67 1 1 32.243 26.522  6.683 
68 1 1 30.957 26.286  4.724 
69 1 1 28.614 25.103  4.519 
70 1 1 26.687 23.707  3.717 
71 1 1 24.957 22.481  2.330 
72 1 1 23.521 20.803  1.771 
73 1 1 22.022 18.802  2.203 
74 1 1 20.643 16.849  1.692 
75 1 1 19.448 14.793  0.708 
76 1 1 18.256 12.707 -0.166 
77 1 1 16.726 10.961 -1.212 
78 1 1 15.202  9.213 -1.504 
79 1 1 15.868  6.783 -1.645 
80 1 1 16.286 41.733 -1.587 
81 1 1 17.376 39.409 -1.486 
82 1 1 18.970 37.474 -1.536 
83 1 1 20.820 35.631 -1.585 
84 1 1 22.507 33.626 -1.836 
85 1 1 24.241 32.410 -0.369 
86 1 1 26.299 31.349  0.638 
87 1 1 28.629 30.452  1.663 
88 1 1 30.907 30.746  2.132 
89 1 1 33.107 32.094  2.268 
90 1 1 33.281 34.268  1.214 
91 1 1 33.014 36.673  0.476 
92 1 1 32.424 38.256 -1.052 
93 1 1 31.112 39.512 -2.523 
94 1 1 29.629 41.525 -3.052 
95 1 1 27.931 43.141 -4.178 
96 1 1 26.373  7.441 -5.228 
97 1 1 24.618  8.312 -3.932 
98 1 1 22.744  9.176 -2.722 
99 1 1 21.306 11.250 -3.331 
100 1 1 20.632 12.187 -5.592 
101 1 1 18.593 11.401 -6.403 
102 1 1 16.955  9.490 -7.189 
103 1 1 17.694  7.378 55.990 
104 1 1 19.126  5.902 -4.968 
105 1 1 20.584 41.936 -3.495 
106 1 1 22.241 40.344 -2.981 
107 1 1 24.405 38.894 -2.867 
108 1 1 26.170 37.031 -2.916 
109 1 1 27.613 35.009 -2.738 
110 1 1 29.341 33.095 -2.556 
111 1 1 31.045 31.319 -2.156 
112 1 1 32.847 29.630 -1.824 
113 1 1 33.780 27.946 -0.529 
114 1 1 33.859 25.877  0.581 
115 1 1 34.392 23.353  1.127 
116 1 1 34.525 20.859  1.577 
117 1 1 34.311 18.265  1.669 
118 1 1 33.164 16.406  2.070 
119 1 1 30.994 15.076  1.879 
120 1 1 29.103 16.306  2.197 
121 1 1 27.387 17.650  3.625 
122 1 1 25.435 18.764  4.810 
123 1 1 25.636 19.842  7.124 
124 1 1 25.738 20.666  9.448 
125 1 1 25.603 21.165 12.001 
126 1 1 25.361 21.626 14.546 
127 1 1 24.982 22.370 17.027 
128 1 1 24.796 22.999 19.508 
129 2 1 23.249 23.470 42.668 
130 2 1 23.952 25.573 41.491 
131 2 1 24.741 27.569 40.087 
132 2 1 25.407 29.517 38.652 
133 2 1 26.109 31.422 37.070 
134 2 1 26.943 33.333 35.611 
135 2 1 28.048 34.752 33.903 
136 2 1 30.016 35.541 32.787 
137 2 1 31.651 36.935 31.926 
138 2 1 32.086 39.062 33.291 
139 2 1 31.311 41.190 32.316 
140 2 1 32.304 41.922 30.155 
141 2 1 31.126 40.417 28.637 
142 2 1 30.392 38.129 27.809 
143 2 1 29.038 36.223 27.900 
144 2 1 27.028 34.899 28.819 
145 2 1 25.133 33.658 29.884 
146 2 1 23.233 32.254 31.123 
147 2 1 23.197 31.842 33.775 
148 2 1 22.032 29.703 34.787 
149 2 1 21.146 29.405 37.194 
150 2 1 20.645 29.426 39.675 
151 2 1 20.127 27.208 41.042 
152 2 1 19.200 25.201 41.800 
153 2 1 17.418 23.364 41.933 
154 2 1 15.769 21.506 42.306 
155 2 1 13.580 21.685 43.615 
156 2 1 12.270 22.872 42.200 
157 2 1 11.890 25.127 40.986 
158 2 1 13.816 26.327 40.084 
159 2 1 15.283 28.036 41.277 
160 2 1 16.320 29.876 42.625 
161 2 1 16.984 31.689 44.302 
162 2 1 16.393 33.230 45.963 
163 2 1 15.873 34.671 47.642 
164 2 1 16.491 36.180 49.745 
165 2 1 18.496 37.783 50.217 
166 2 1 19.430 39.968 51.135 
167 2 1 20.275 42.070 52.447 
168 2 1 22.017 42.088 53.996 
169 2 1 24.493 41.575 54.557 
170 2 1 26.767 40.539 54.851 
171 2 1 28.224 38.679 55.447 
172 2 1 28.844 36.585 -6.752 
173 2 1 28.959 34.083 55.210 
174 2 1 29.313 31.571 54.864 
175 2 1 30.252 29.430 55.338 
176 2 1 29.062 28.653 -5.341 
177 2 1 26.875 29.196 -4.786 
178 2 1 24.633 30.386 -4.676 
179 2 1 24.171 32.805 -5.308 
180 2 1 23.531 35.213 -6.032 
181 2 1 22.550 37.545 -6.818 
182 2 1 20.048 38.256 -6.520 
183 2 1 17.650 37.992 -6.455 
184 2 1 15.605 37.590 -5.576 
185 2 1 13.860 37.141 -4.288 
186 2 1 12.346 35.949 -2.886 
187 2 1 13.451 35.723 -0.600 
188 2 1 14.226 34.889  1.778 
189 2 1 14.778 33.298  3.732 
190 2 1 15.574 31.749  5.611 
191 2 1 16.205 30.194  7.702 
192 2 1 16.840 28.688  9.692 
193 2 1 17.366 27.231 11.631 
194 2 1 15.528 26.370 13.244 
195 2 1 14.028 25.808 15.243 
196 2 1 12.436 26.019 17.043 
197 2 1 10.184 26.295 18.159 
198 2 1  8.042 27.188 19.278 
199 2 1  6.033 28.273 20.266 
200 2 1  3.991 29.698 20.863 
201 2 1  1.774 30.992 21.097 
202 2 1  0.067 32.166 22.280 
203 2 1 49.192 33.492 24.273 
204 2 1 47.674 33.736 25.934 
205 2 1 45.343 33.239 26.872 
206 2 1 43.100 32.799 28.082 
207 3 1 15.194 31.678 38.359 
208 3 1 13.898 33.532 38.208 
209 3 1 12.301 35.239 37.132 
210 3 1 11.015 37.311 36.270 
211 3 1 10.737 38.001 33.855 
212 3 1 10.176 38.877 31.579 
213 3 1 10.793 39.036 29.323 
214 3 1 12.201 38.720 27.243 
215 3 1 13.315 38.219 24.956 
216 3 1 13.968 38.880 22.824 
217 3 1 15.007 41.212 22.968 
218 3 1 15.633 43.686 23.191 
219 3 1 16.268  8.645 23.569 
220 3 1 16.139 10.830 22.113 
221 3 1 16.828 13.075 20.969 
222 3 1 17.719 15.272 19.992 
223 3 1 18.723 17.612 19.524 
224 3 1 20.356 19.045 18.861 
225 3 1 20.649 19.032 16.297 
226 3 1 20.849 19.500 13.731 
227 3 1 21.244 19.322 11.099 
228 3 1 21.059 18.185  9.098 
229 3 1 21.287 16.726  7.219 
230 3 1 23.507 15.574  6.467 
231 3 1 25.467 14.177  5.654 
232 3 1 27.448 12.827  4.522 
233 3 1 29.292 11.315  3.649 
234 3 1 30.736  9.442  3.700 
235 3 1 32.395  8.011  4.700 
236 3 1 34.674  7.291  5.662 
237 3 1 36.809  6.475  6.851 
238 3 1 38.824 43.475  8.549 
239 3 1 38.508  6.964 10.656 
240 3 1 36.254  7.500 11.127 
241 3 1 34.125  8.641 10.565 
242 3 1 31.775  9.534  9.958 
243 3 1 29.404 10.344  9.356 
244 3 1 27.704 12.116  9.265 
245 3 1 26.479 14.218  9.997 
246 3 1 25.295 15.588 11.514 
247 3 1 23.845 16.349 13.466 
248 3 1 23.268 14.912 15.574 
249 3 1 22.787 13.489 17.718 
250 3 1 22.195 14.496 20.094 
251 3 1 21.193 15.132 22.445 
252 3 1 20.212 16.686 23.841 
253 3 1 18.838 18.798 24.485 
254 3 1 18.499 21.111 23.439 
255 3 1 17.881 23.309 22.300 
256 3 1 17.035 25.272 20.929 
257 3 1 16.621 27.043 19.444 
258 3 1 17.053 28.699 17.482 
259 3 1 17.102 30.412 15.563 
260 3 1 17.094 32.579 14.591 
261 3 1 16.761 35.088 14.662 
262 3 1 16.200 37.650 14.291 
263 3 1 16.802 39.950 14.277 
264 3 1 17.337 41.164 16.510 
265 3 1 17.832 42.210 18.847 
266 3 1 19.078  6.660 19.856 
267 3 1 20.287  8.819 20.829 
268 3 1 20.534  9.361 23.365 
269 3 1 20.669  9.762 25.912 
270 3 1 21.921 11.840 26.711 
271 3 1 22.938 14.120 27.456 
272 3 1 23.634 16.617 27.880 
273 3 1 23.898 18.825 27.204 
274 3 1 23.707 20.648 25.359 
275 3 1 23.997 20.067 23.057 
276 3 1 25.009 19.288 20.784 
277 3 1 25.965 18.001 18.722 
278 3 1 27.106 16.455 16.976 
279 3 1 28.384 15.178 15.147 
280 3 1 29.891 14.475 13.147 
281 3 1 31.566 14.210 11.214 
282 3 1 33.532 15.666 10.756 
283 3 1 35.187 17.182 10.833 
284 3 1 36.779 18.790 11.171 
285 4 1 28.680 36.829  2.028 
286 4 1 29.451 35.054  3.770 
287 4 1 29.329 34.056  5.839 
288 4 1 29.770 34.869  8.263 
289 4 1 30.607 35.709 10.473 
290 4 1 31.924 36.943 12.344 
291 4 1 33.051 37.950 14.455 
292 4 1 34.211 38.769 16.579 
293 4 1 32.932 39.566 18.744 
294 4 1 31.574 40.185 20.781 
295 4 1 30.245 40.774 22.915 
296 4 1 28.717 41.609 24.762 
297 4 1 26.772 40.197 25.884 
298 4 1 24.669 38.871 26.707 
299 4 1 22.364 39.506 27.815 
300 4 1 21.080 37.939 29.423 
301 4 1 20.029 36.391 31.159 
302 4 1 18.918 34.744 32.698 
303 4 1 18.068 32.678 33.577 
304 4 1 16.197 31.500 32.300 
305 4 1 15.818 29.052 31.526 
306 4 1 15.142 26.718 30.456 
307 4 1 15.769 24.625 29.742 
308 4 1 16.823 22.892 30.986 
309 4 1 17.017 21.103 32.947 
310 4 1 17.337 19.099 34.473 
311 4 1 17.719 16.929 35.823 
312 4 1 16.988 15.229 37.104 
313 4 1 15.189 13.689 38.192 
314 4 1 12.963 13.320 37.128 
315 4 1 11.434 11.331 37.708 
316 4 1  9.839  9.333 38.285 
317 4 1  7.327  8.867 37.810 
318 4 1  5.482  9.215 36.576 
319 4 1  4.293 10.754 34.937 
320 4 1  3.640 12.552 33.150 
321 4 1  3.956 14.274 31.266 
322 4 1  4.305 16.236 29.572 
323 4 1  4.971 18.245 28.041 
324 4 1  5.982 19.991 26.380 
325 4 1  6.347 22.534 26.924 
326 4 1  4.570 24.417 26.755 
327 4 1  4.704 26.418 25.072 
328 4 1  4.920 28.898 25.796 
329 4 1  5.092 31.218 26.877 
330 4 1  3.664 33.368 26.338 
331 4 1  2.360 35.530 26.019 
332 4 1  1.030 37.747 25.891 
333 4 1 -0.787 38.490 27.641 
334 4 1 48.452 38.317 29.593 
335 4 1 48.530 38.117 32.125 
336 4 1 48.593 38.540 34.686 
337 4 1  0.399 38.444 36.451 
338 4 1  2.485 37.730 37.204 
339 4 1  5.034 37.217 37.220 
340 4 1  6.432 35.964 35.457 
341 4 1  7.130 34.377 33.933 
342 4 1  6.270 32.462 32.499 
343 4 1  4.035 31.070 32.599 
344 4 1  1.806 29.723 32.825 
345 4 1 -0.313 29.121 34.179 
346 4 1 47.858 28.028 35.399 
347 4 1 45.860 26.865 36.580 
348 4 1 43.727 27.048 37.445 
349 4 1 41.411 28.016 37.872 
350 4 1 40.671 30.346 36.960 
351 4 1 39.796 32.572 35.954 
352 4 1 39.032 34.577 37.286 
353 4 1 36.866 34.316 38.682 
354 4 1 35.400 33.482 40.349 
355 4 1 34.548 32.623 42.643 
356 4 1 32.869 32.007 43.858 
357 4 1 30.622 30.751 44.073 
358 4 1 28.440 29.317 44.332 
359 4 1 26.323 28.151 44.936 
360 4 1 26.190 26.219 46.593 
361 4 1 25.625 23.782 46.418 
362 4 1 24.886 21.258 46.602 
363 5 1 41.062 21.902 46.648 
364 5 1 40.577 21.306 49.163 
365 5 1 39.826 20.738 51.579 
366 5 1 38.637 20.743 53.882 
367 5 1 40.013 20.863 56.076 
368 5 1 41.464 21.011 -4.322 
369 5 1 42.938 21.767 -2.632 
370 5 1 44.745 23.229 -1.517 
371 5 1 47.342 23.131 -1.693 
372 5 1 49.892 23.188 -2.069 
373 5 1  1.746 22.146 -2.215 
374 5 1  3.315 20.098 -2.175 
375 5 1  5.116 18.315 -2.579 
376 5 1  7.078 16.686 -2.909 
377 5 1  8.636 14.694 -3.574 
378 5 1  8.156 13.561 -5.420 
379 5 1  7.196 14.174 55.035 
380 5 1  5.682 14.283 53.385 
381 5 1  3.921 13.358 51.685 
382 5 1  1.723 12.120 52.172 
383 5 1 -0.391 11.896 50.749 
384 5 1 47.909 12.548 49.644 
385 5 1 46.305 14.186 48.558 
386 5 1 44.451 15.653 47.440 
387 5 1 42.462 16.778 46.186 
388 5 1 40.310 17.762 45.120 
389 5 1 37.989 18.556 44.161 
390 5 1 36.866 20.356 42.748 
391 5 1 35.816 22.410 41.643 
392 5 1 33.590 23.493 42.466 
393 5 1 33.141 25.313 43.817 
394 5 1 31.229 25.544 45.504 
395 5 1 30.675 23.316 46.143 
396 5 1 30.255 20.698 46.075 
397 5 1 31.867 19.732 44.668 
398 5 1 33.631 18.584 46.043 
399 5 1 35.642 17.691 47.534 
400 5 1 37.701 17.096 48.949 
401 5 1 40.025 16.417 49.771 
402 5 1 41.999 15.434 51.067 
403 5 1 43.463 14.212 52.782 
404 5 1 44.424 12.389 53.800 
405 5 1 44.836  9.908 54.128 
406 5 1 45.025  7.362 54.240 
407 5 1 45.294 42.321 53.915 
408 5 1 46.310 40.321 54.229 
409 5 1 47.910 38.735 55.273 
410 5 1 49.623 37.208 -6.200 
411 5 1  0.948 35.745 -4.750 
412 5 1  2.245 34.369 -3.118 
413 5 1  3.707 33.107 -1.505 
414 5 1  4.178 33.593  0.956 
415 5 1  4.410 34.389  3.310 
416 5 1  4.485 35.123  5.797 
417 5 1  4.211 35.541  8.385 
418 5 1  2.998 36.342 10.183 
419 5 1  1.166 38.117  9.607 
420 5 1 -0.618 39.326  8.834 
421 5 1 47.206 39.467  7.903 
422 5 1 45.339 40.417  6.858 
423 5 1 43.685 42.005  5.778 
424 5 1 41.709 43.488  5.072 
425 5 1 40.425  7.186  3.403 
426 5 1 39.482  8.044  1.085 
427 5 1 38.452  9.102 -0.905 
428 5 1 37.359 10.178 -3.114 
429 5 1 35.901 10.644 -5.128 
430 5 1 34.279 11.285 -7.019 
431 5 1 32.926 12.132 53.475 
432 5 1 31.516 11.686 51.676 
433 5 1 30.346 10.191 49.916 
434 5 1 29.510  9.688 47.823 
435 5 1 28.893  8.982 45.755 
436 5 1 27.047  7.586 44.852 
437 5 1 25.337  9.075 45.252 
438 5 1 24.388 11.150 45.923 
439 5 1 23.148 12.470 47.528 
440 5 1 21.184 13.688 48.151 
441 6 1  8.720 19.934 38.287 
442 6 1  8.663 22.517 38.155 
443 6 1  8.969 25.084 38.038 
444 6 1  9.275 27.643 37.995 
445 6 1  9.778 30.203 37.955 
446 6 1  9.672 32.319 38.484 
447 6 1  8.688 34.107 40.081 
448 6 1  7.722 36.115 41.000 
449 6 1  6.488 38.405 41.115 
450 6 1  7.404 40.019 39.758 
451 6 1  9.166 41.438 38.634 
452 6 1 10.728 42.578 36.997 
453 6 1 12.265  6.459 35.373 
454 6 1 13.705  7.752 33.703 
455 6 1 15.973  8.861 34.499 
456 6 1 17.413 10.883 33.949 
457 6 1 19.974 11.141 34.322 
458 6 1 21.753 10.787 32.541 
459 6 1 23.942 10.765 30.980 
460 6 1 25.934 10.693 29.370 
461 6 1 27.016 12.434 27.782 
462 6 1 28.416 11.697 25.707 
463 6 1 29.976 10.988 23.722 
464 6 1 31.592  9.842 22.101 
465 6 1 33.709 10.341 20.703 
466 6 1 35.885 10.892 19.609 
467 6 1 38.186 11.873 18.936 
468 6 1 40.362 13.060 18.467 
469 6 1 42.503 14.322 18.006 
470 6 1 44.966 13.673 17.570 
471 6 1 47.413 12.936 17.483 
472 6 1 49.981 12.292 17.659 
473 6 1  2.376 11.754 17.762 
474 6 1  4.250 13.077 18.899 
475 6 1  6.549 14.128 19.695 
476 6 1  8.249 15.613 19.398 
477 6 1  9.121 17.669 18.207 
478 6 1  8.323 18.427 15.850 
479 6 1  7.630 19.557 13.561 
480 6 1  7.377 20.367 11.086 
481 6 1  6.188 20.965  9.201 
482 6 1  4.677 20.958  7.334 
483 6 1  2.551 19.925  7.416 
484 6 1  0.438 18.869  7.589 
485 6 1 48.676 17.209  7.303 
486 6 1 46.723 15.594  7.007 
487 6 1 46.447 13.383  7.679 
488 6 1 46.541 11.522  9.282 
489 6 1 46.572  9.332  9.851 
490 6 1 45.742  6.866  9.698 
491 6 1 43.565  6.484 10.308 
492 6 1 43.367 43.048 12.778 
493 6 1 41.248 42.030 13.794 
494 6 1 38.993 41.036 14.475 
495 6 1 36.987 42.442 15.367 
496 6 1 34.832  5.789 16.428 
497 6 1 32.632  6.437 17.690 
498 6 1 30.362  6.709 18.901 
499 6 1 28.142  7.116 20.175 
500 6 1 26.325  7.876 21.702 
501 6 1 25.228  9.475 22.990 
502 6 1 25.648 11.963 22.610 
503 6 1 25.779 14.599 22.481 
504 6 1 27.280 16.329 23.727 
505 6 1 28.731 18.069 25.080 
506 6 1 30.262 19.630 26.408 
507 6 1 31.999 20.854 27.792 
508 6 1 34.118 21.917 26.872 
509 6 1 36.290 23.070 25.975 
510 6 1 38.101 24.488 24.838 
511 6 1 40.160 25.051 23.637 
512 6 1 41.848 23.175 23.141 
513 6 1 43.337 21.326 22.372 
514 6 1 43.958 19.181 21.779 
515 6 1 43.819 16.570 22.069 
516 6 1 43.880 14.024 22.432 
517 6 1 45.692 12.710 23.700 
518 6 1 47.429 11.512 25.125 
519 7 1 10.768 19.624 24.751 
520 7 1  9.840 22.042 24.192 
521 7 1 11.294 24.011 23.174 
522 7 1 12.624 25.651 21.755 
523 7 1 13.044 28.232 21.929 
524 7 1 13.015 29.862 19.967 
525 7 1 12.603 31.518 18.050 
526 7 1 12.142 33.227 16.188 
527 7 1 11.927 34.819 14.252 
528 7 1 11.652 36.872 12.592 
529 7 1 10.247 38.992 13.199 
530 7 1  7.745 39.540 12.947 
531 7 1  5.246 40.193 12.646 
532 7 1  3.244 40.391 13.761 
533 7 1  2.167 39.016 15.662 
534 7 1  3.415 37.613 17.531 
535 7 1  4.221 35.782 19.228 
536 7 1  5.272 34.132 20.928 
537 7 1  6.741 32.876 22.567 
538 7 1  8.300 31.276 23.343 
539 7 1  9.192 29.179 24.191 
540 7 1  9.759 27.406 25.996 
541 7 1 10.358 25.490 27.701 
542 7 1 11.249 23.365 28.828 
543 7 1 10.086 21.231 29.516 
544 7 1  9.322 18.859 29.935 
545 7 1  9.147 17.537 32.189 
546 7 1  9.052 16.003 34.284 
547 7 1  8.094 14.906 36.096 
548 7 1  7.100 13.763 37.736 
549 7 1  6.750 13.217 39.944 
550 7 1  6.086 13.653 42.282 
551 7 1  5.676 15.845 42.823 
552 7 1  3.125 16.092 43.052 
553 7 1  1.502 16.830 41.176 
554 7 1  0.130 17.716 39.204 
555 7 1 48.891 18.674 37.192 
556 7 1 48.242 21.218 36.611 
557 7 1 46.533 22.166 34.928 
558 7 1 45.170 23.309 33.136 
559 7 1 42.812 24.299 32.944 
560 7 1 42.065 26.726 32.863 
561 7 1 42.558 29.007 32.877 
562 7 1 44.039 31.053 33.114 
563 7 1 46.354 31.445 31.926 
564 7 1 48.327 32.184 30.444 
565 7 1 50.082 34.054 30.740 
566 7 1  2.016 35.516 30.833 
567 7 1  3.264 37.459 30.899 
568 7 1  3.008 39.973 31.147 
569 7 1  2.691 42.501 31.203 
570 7 1  3.142  7.298 31.422 
571 7 1  4.458  9.035 29.919 
572 7 1  5.308 10.819 28.280 
573 7 1  7.435 11.358 29.102 
574 7 1  9.200 11.028 30.522 
575 7 1  8.741  9.791 32.826 
576 7 1  7.952  7.287 33.065 
577 7 1  7.027 42.452 33.768 
578 7 1  5.298 40.983 34.485 
579 7 1  3.702 41.861 36.393 
580 7 1  2.252 42.823 38.236 
581 7 1  1.537  7.765 38.051 
582 7 1  0.795 10.099 37.377 
583 7 1  0.389 12.300 36.203 
584 7 1  0.198 14.608 35.141 
585 7 1 -0.002 16.774 33.785 
586 7 1  0.092 19.089 32.703 
587 7 1  1.247 20.368 31.204 
588 7 1  0.993 21.151 29.052 
589 7 1  0.399 22.551 27.040 
590 7 1 48.600 23.808 27.147 
591 7 1 45.979 23.927 27.619 
592 7 1 44.493 21.920 28.309 
593 7 1 44.283 19.898 29.393 
594 7 1 44.887 18.248 31.142 
595 7 1 45.461 16.429 32.729 
596 7 1 45.752 14.235 34.125 
597 8 1 31.709 19.768 -2.930 
598 8 1 31.852 22.276 -3.493 
599 8 1 31.478 24.773 -3.279 
600 8 1 29.543 25.499 -1.712 
601 8 1 27.660 26.089 -0.240 
602 8 1 25.597 26.402 -1.297 
603 8 1 23.531 25.516 -2.511 
604 8 1 21.500 24.276 -3.464 
605 8 1 19.478 22.849 -4.033 
606 8 1 17.377 21.433 -4.690 
607 8 1 15.720 19.813 -5.839 
608 8 1 14.266 18.434 55.231 
609 8 1 12.614 17.019 53.745 
610 8 1 11.321 15.722 51.931 
611 8 1 10.121 13.347 51.825 
612 8 1  8.702 11.253 51.847 
613 8 1  7.016  9.244 52.325 
614 8 1  4.807  8.008 53.121 
615 8 1  3.224  6.191 53.985 
616 8 1  2.904 41.591 54.890 
617 8 1  3.976 39.461 -6.538 
618 8 1  5.300 37.472 -5.778 
619 8 1  6.588 35.575 -4.925 
620 8 1  8.063 33.564 -4.242 
621 8 1  8.709 33.629 -2.140 
622 8 1  9.299 33.235  0.060 
623 8 1  9.785 32.803  2.271 
624 8 1  9.013 32.748  4.758 
625 8 1  7.258 31.126  5.766 
626 8 1  5.126 29.915  6.678 
627 8 1  2.774 28.920  6.740 
628 8 1  0.404 28.172  6.493 
629 8 1 48.539 29.095  5.158 
630 8 1 46.608 29.600  3.591 
631 8 1 44.823 29.500  1.744 
632 8 1 43.402 28.833 -0.216 
633 8 1 42.216 27.630 -2.227 
634 8 1 41.375 26.366 -4.305 
635 8 1 41.206 25.556 -6.507 
636 8 1 41.971 24.919 53.607 
637 8 1 42.993 24.254 51.326 
638 8 1 43.980 24.365 48.960 
639 8 1 46.542 24.804 48.413 
640 8 1 47.842 24.956 46.206 
641 8 1 48.036 26.943 45.183 
642 8 1 48.171 28.617 43.572 
643 8 1 49.353 27.727 41.403 
644 8 1 -0.124 26.758 39.096 
645 8 1  1.969 26.863 37.548 
646 8 1  3.981 27.045 35.908 
647 8 1  6.056 27.153 34.287 
648 8 1  8.216 27.236 32.840 
649 8 1  8.530 28.939 30.838 
650 8 1  9.433 30.492 28.936 
651 8 1  9.422 32.574 28.067 
652 8 1  8.322 34.795 27.576 
653 8 1  7.175 37.014 27.117 
654 8 1  5.902 39.225 27.194 
655 8 1  5.723 41.330 27.973 
656 8 1  7.036 43.377 28.974 
657 8 1  9.475  6.725 28.588 
658 8 1 11.772  6.488 28.841 
659 8 1 13.964  5.193 29.380 
660 8 1 14.469 41.127 31.379 
661 8 1 15.422 39.390 33.027 
662 8 1 16.009 37.606 34.800 
663 8 1 16.128 37.131 37.016 
664 8 1 16.276 38.011 39.453 
665 8 1 17.609 40.077 40.276 
666 8 1 19.017 42.201 40.844 
667 8 1 21.012 43.547 41.625 
668 8 1 23.173  6.535 41.968 
669 8 1 25.585  5.771 41.481 
670 8 1 27.925 42.260 40.935 
671 8 1 30.348 41.345 40.411 
672 8 1 32.276 41.280 39.185 
673 8 1 33.572 41.882 36.996 
674 8 1 35.002 42.369 34.900 
675 9 1 -0.491 31.801 51.772 
676 9 1 -0.870 29.507 52.845 
677 9 1 49.720 27.470 53.881 
678 9 1  1.226 25.916 55.121 
679 9 1  1.900 23.802 -6.901 
680 9 1  1.748 21.268 -6.942 
681 9 1  1.571 18.671 -7.005 
682 9 1  1.979 16.451 -6.199 
683 9 1  2.156 14.480 -5.054 
684 9 1  2.384 14.121 -2.484 
685 9 1  3.722 13.933 -0.601 
686 9 1  5.712 13.548  0.940 
687 9 1  6.552 11.485  0.428 
688 9 1  6.384  8.867  0.393 
689 9 1  7.205  6.763  0.907 
690 9 1  8.580 42.409  2.023 
691 9 1  9.583 41.963  4.411 
692 9 1 10.568 41.671  6.816 
693 9 1 12.104 43.288  7.459 
694 9 1 12.927  8.129  7.889 
695 9 1 11.738 10.072  9.033 
696 9 1  9.850 11.272  9.746 
697 9 1  7.260 11.642 10.086 
698 9 1  4.685 11.952 10.573 
699 9 1  2.297 12.296 11.386 
700 9 1  0.714 13.277 12.753 
701 9 1 -0.294 15.040 14.225 
702 9 1 48.885 16.806 15.891 
703 9 1 48.473 17.458 18.032 
704 9 1 48.124 16.957 20.523 
705 9 1 49.017 14.972 21.280 
706 9 1  0.606 13.260 22.013 
707 9 1  2.928 13.652 23.099 
708 9 1  4.915 13.906 24.702 
709 9 1  6.942 14.406 26.211 
710 9 1  9.148 15.011 27.384 
711 9 1 11.562 15.468 28.142 
712 9 1 13.647 16.600 28.493 
713 9 1 15.398 18.530 28.346 
714 9 1 15.064 20.763 27.027 
715 9 1 14.821 23.060 25.992 
716 9 1 14.700 25.574 25.586 
717 9 1 14.469 28.097 25.851 
718 9 1 13.997 30.609 25.993 
719 9 1 12.833 32.521 25.218 
720 9 1 11.397 34.013 23.813 
721 9 1 10.266 35.699 22.386 
722 9 1  8.981 37.127 20.629 
723 9 1  8.479 36.317 18.297 
724 9 1  7.597 35.624 15.929 
725 9 1  6.761 34.758 13.676 
726 9 1  6.330 32.997 12.327 
727 9 1  6.898 30.746 11.281 
728 9 1  7.525 28.748  9.841 
729 9 1  7.798 26.799  8.308 
730 9 1  7.601 24.886  6.659 
731 9 1  8.427 24.354  4.219 
732 9 1  9.762 25.114  2.610 
733 9 1 11.202 26.866  1.373 
734 9 1 12.399 28.597 -0.078 
735 9 1 13.542 30.734 -0.996 
736 9 1 15.224 32.047 -1.971 
737 9 1 17.074 32.766 -3.456 
738 9 1 19.160 33.182 -4.892 
739 9 1 19.110 33.383 -7.448 
740 9 1 19.599 33.440 52.550 
741 9 1 20.521 33.276 50.145 
742 9 1 20.886 34.086 48.044 
743 9 1 20.431 35.363 45.894 
744 9 1 19.859 35.480 43.594 
745 9 1 19.217 34.560 41.261 
746 9 1 19.263 34.436 38.935 
747 9 1 20.494 35.083 36.836 
748 9 1 22.079 35.919 34.920 
749 9 1 23.829 36.637 33.236 
750 9 1 24.839 38.102 31.321 
751 9 1 25.436 40.681 31.409 
752 9 1 27.410 42.156 30.766 
753 10 1  9.397 29.246 -4.699 
754 10 1  9.273 28.203 -2.297 
755 10 1  7.957 28.785 -0.288 
756 10 1  6.582 29.274  1.900 
757 10 1  4.207 29.061  1.713 
758 10 1  1.768 29.492  1.017 
759 10 1 -0.511 29.166  0.743 
760 10 1 48.984 28.008 -1.522 
761 10 1 47.893 27.267 -3.718 
762 10 1 46.533 26.872 -5.874 
763 10 1 46.482 24.709 -6.847 
764 10 1 47.347 22.599 54.415 
765 10 1 48.496 22.667 52.152 
766 10 1  0.020 22.962 50.311 
767 10 1  1.957 23.687 49.211 
768 10 1  4.097 23.399 50.527 
769 10 1  5.308 22.434 52.164 
770 10 1  5.831 20.771 54.050 
771 10 1  7.367 19.782 55.542 
772 10 1  9.592 19.397 -5.646 
773 10 1 11.590 18.984 -4.050 
774 10 1 13.368 18.579 -2.324 
775 10 1 15.282 18.239 -0.586 
776 10 1 17.222 19.796  0.090 
777 10 1 18.819 21.717  0.766 
778 10 1 20.025 23.822  1.560 
779 10 1 21.258 25.883  2.327 
780 10 1 23.292 27.208  3.123 
781 10 1 25.207 28.513  4.237 
782 10 1 27.195 29.354  5.667 
783 10 1 28.953 30.326  7.326 
784 10 1 30.988 31.230  8.767 
785 10 1 33.068 32.267  9.862 
786 10 1 35.123 33.300 11.196 
787 10 1 37.161 34.125 12.409 
788 10 1 39.067 35.553 13.113 
789 10 1 38.693 36.954 14.895 
790 10 1 38.769 37.589 17.341 
791 10 1 38.144 38.938 19.217 
792 10 1 37.077 40.862 20.499 
793 10 1 36.946 42.900 21.473 
794 10 1 37.188  7.429 22.510 
795 10 1 36.954  8.952 24.529 
796 10 1 36.574 10.501 26.603 
797 10 1 36.064 11.981 28.629 
798 10 1 35.510 13.425 30.751 
799 10 1 36.488 14.429 32.825 
800 10 1 36.659 13.385 35.203 
801 10 1 36.948 12.580 37.546 
802 10 1 37.642 11.963 39.922 
803 10 1 38.695 10.580 41.659 
804 10 1 39.678  8.676 43.060 
805 10 1 41.852  7.482 43.698 
806 10 1 44.024  6.208 44.332 
807 10 1 46.247  5.438 45.243 
808 10 1 48.371 41.918 46.331 
809 10 1  0.256 40.869 47.315 
810 10 1  2.533 40.018 48.249 
811 10 1  4.738 40.314 48.875 
812 10 1  6.521 41.434 49.746 
813 10 1  7.652 41.582 51.967 
814 10 1  8.256 42.339 54.147 
815 10 1  7.982  6.515 56.083 
816 10 1  7.772  8.361 -4.721 
817 10 1  5.805  9.783 -4.139 
818 10 1  3.647 10.286 -4.710 
819 10 1  1.468  9.919 -5.936 
820 10 1 -0.729  9.350 -7.162 
821 10 1 -0.882  7.908 53.191 
822 10 1 49.088  6.343 51.252 
823 10 1 49.655 41.504 51.539 
824 10 1  0.727 39.324 51.871 
825 10 1  1.590 37.172 52.645 
826 10 1  2.801 35.487 54.111 
827 10 1  4.001 33.478 54.426 
828 10 1  5.438 31.370 54.190 
829 10 1  6.909 29.272 54.006 
830 10 1  7.264 27.002 54.016 
831 11 1 43.151 39.835 42.694 
832 11 1 42.161 41.226 41.089 
833 11 1 40.250 40.195 40.220 
834 11 1 38.535 39.374 38.899 
835 11 1 36.183 38.501 38.347 
836 11 1 34.002 37.404 37.656 
837 11 1 32.595 35.576 36.788 
838 11 1 30.847 34.111 37.899 
839 11 1 30.612 31.595 38.428 
840 11 1 30.250 29.245 39.372 
841 11 1 29.590 27.014 40.345 
842 11 1 28.664 24.735 41.373 
843 11 1 28.005 22.326 42.103 
844 11 1 27.293 19.879 42.115 
845 11 1 26.711 17.866 41.043 
846 11 1 27.107 16.334 39.194 
847 11 1 27.242 14.507 37.697 
848 11 1 26.569 12.269 36.588 
849 11 1 26.000 10.070 35.404 
850 11 1 26.286  7.847 35.064 
851 11 1 27.366  5.561 35.574 
852 11 1 28.317 40.689 35.808 
853 11 1 28.510 38.757 37.506 
854 11 1 27.491 36.986 38.583 
855 11 1 25.480 35.614 39.076 
856 11 1 24.048 34.176 40.087 
857 11 1 23.248 32.352 41.684 
858 11 1 22.486 30.530 43.349 
859 11 1 21.478 28.939 44.990 
860 11 1 20.058 27.324 46.563 
861 11 1 18.162 25.620 45.976 
862 11 1 17.418 23.406 47.161 
863 11 1 18.304 21.125 46.405 
864 11 1 19.133 18.920 45.612 
865 11 1 20.528 17.326 44.665 
866 11 1 22.786 16.123 44.328 
867 11 1 25.109 15.001 44.208 
868 11 1 27.504 14.284 44.036 
869 11 1 30.034 13.622 43.883 
870 11 1 31.898 13.545 45.711 
871 11 1 33.781 13.252 47.519 
872 11 1 35.633 12.853 49.257 
873 11 1 37.311 12.447 51.153 
874 11 1 38.737 12.111 53.199 
875 11 1 40.116 12.025 55.417 
876 11 1 41.607 11.652 -4.996 
877 11 1 42.682 10.961 -2.771 
878 11 1 43.579 10.322 -0.497 
879 11 1 44.505  9.757  1.829 
880 11 1 46.814 10.472  2.831 
881 11 1 47.647  9.948  5.141 
882 11 1 49.016  8.040  6.071 
883 11 1 -0.079  6.119  7.555 
884 11 1  1.492  6.607  9.497 
885 11 1  3.011  7.061 11.594 
886 11 1  4.055  7.560 13.906 
887 11 1  5.228  8.199 16.083 
888 11 1  7.067  9.024 17.820 
889 11 1  8.772 10.169 19.309 
890 11 1 10.609 11.467 20.683 
891 11 1 12.197 12.438 19.426 
892 11 1 13.148 14.303 17.916 
893 11 1 14.125 16.471 16.817 
894 11 1 15.691 17.545 15.509 
895 11 1 17.648 16.223 14.565 
896 11 1 19.550 15.311 13.098 
897 11 1 20.731 13.941 11.213 
898 11 1 22.240 12.388 10.247 
899 11 1 23.954 10.439 10.483 
900 11 1 24.824  8.362 10.344 
901 11 1 24.666  6.031  9.264 
902 11 1 22.606 42.637  8.218 
903 11 1 20.545 42.780  7.237 
904 11 1 18.126 43.585  6.936 
905 11 1 17.278  8.357  7.956 
906 11 1 16.644 10.814  8.587 
907 11 1 16.208 13.346  8.901 
908 11 1 16.133 15.892  9.135 
909 12 1 11.078 15.178 42.521 
910 12 1 12.178 16.635 40.620 
911 12 1 13.444 18.335 39.218 
912 12 1 14.677 20.061 37.796 
913 12 1 14.284 22.705 37.491 
914 12 1 15.584 24.368 36.028 
915 12 1 17.404 25.350 34.648 
916 12 1 19.782 25.432 33.477 
917 12 1 21.170 23.283 33.015 
918 12 1 22.703 21.188 32.773 
919 12 1 24.295 19.211 32.618 
920 12 1 25.758 17.112 32.704 
921 12 1 27.330 14.973 32.721 
922 12 1 28.487 12.679 32.556 
923 12 1 29.510 10.906 31.451 
924 12 1 30.556  9.745 29.523 
925 12 1 31.765  8.842 27.485 
926 12 1 32.781  7.272 26.156 
927 12 1 33.938 42.467 25.672 
928 12 1 35.380 40.391 25.087 
929 12 1 37.043 38.515 24.694 
930 12 1 38.129 36.656 23.603 
931 12 1 38.891 35.055 21.776 
932 12 1 39.186 33.229 19.933 
933 12 1 41.447 33.282 18.617 
934 12 1 42.187 33.317 16.234 
935 12 1 42.944 34.328 14.245 
936 12 1 43.613 36.224 12.619 
937 12 1 43.209 37.725 10.878 
938 12 1 42.123 39.223  9.064 
939 12 1 39.792 39.423  9.598 
940 12 1 37.547 39.793 10.741 
941 12 1 35.366 40.630 11.644 
942 12 1 33.411 42.013 12.488 
943 12 1 31.268 42.769 12.581 
944 12 1 29.596 42.019 14.398 
945 12 1 28.291 41.280 16.449 
946 12 1 26.916 40.118 18.435 
947 12 1 25.441 38.911 20.021 
948 12 1 23.837 37.351 21.413 
949 12 1 23.122 36.049 23.241 
950 12 1 22.420 34.920 25.247 
951 12 1 20.745 34.317 26.962 
952 12 1 19.740 32.662 28.243 
953 12 1 19.017 30.242 28.547 
954 12 1 20.506 28.343 29.425 
955 12 1 22.425 27.148 30.170 
956 12 1 24.185 25.753 30.688 
957 12 1 25.433 23.569 30.827 
958 12 1 26.850 21.457 30.414 
959 12 1 28.082 19.219 30.346 
960 12 1 29.487 17.087 30.112 
961 12 1 31.141 15.148 29.701 
962 12 1 31.808 14.172 27.412 
963 12 1 33.068 14.360 25.381 
964 12 1 35.229 15.587 26.068 
965 12 1 35.208 17.737 26.847 
966 12 1 35.897 17.803 29.332 
967 12 1 34.301 17.652 31.409 
968 12 1 32.733 17.247 33.453 
969 12 1 31.106 16.070 34.617 
970 12 1 31.826 14.499 36.529 
971 12 1 32.390 13.142 38.519 
972 12 1 32.841 11.609 40.498 
973 12 1 32.844  9.930 42.409 
974 12 1 33.404  8.805 44.313 
975 12 1 34.351  8.671 46.728 
976 12 1 34.637  8.182 49.194 
977 12 1 35.131  7.732 51.708 
978 12 1 35.736  6.921 54.130 
979 12 1 36.510  5.976 56.371 
980 12 1 37.116 42.681 -3.788 
981 12 1 38.184 41.403 -1.987 
982 12 1 39.792 39.740 -0.853 
983 12 1 41.389 38.138  0.546 
984 12 1 43.744 38.579  1.520 
985 12 1 46.157 38.566  2.493 
986 12 1 48.498 38.203  3.694 