LAMMPS data file generated by aa2cg.

2000 atoms
1 atom types
1975 bonds
1 bond types
1950 angles
1 angle types
1925 dihedrals
1 dihedral types

 0.000 50.786 xlo xhi
 0.000 36.101 ylo yhi
 0.000 63.372 zlo zhi

Masses

1 24.022

Atoms # molecular

1 1 1 13.962 24.629 18.735 
2 1 1  5.902 33.110 30.022 
3 2 1  1.519 17.376 50.996 
4 2 1 44.928 18.021 22.104 
5 3 1 16.750 13.915  8.655 
6 3 1 32.623 41.654 24.792 
7 4 1 32.089 35.471 44.662 
8 4 1 19.456 32.748  6.758 
9 5 1 13.687 26.411  9.120 
10 5 1 18.774 32.633 15.479 
11 6 1 35.469 40.378 18.937 
12 6 1 32.444 30.649 40.130 
13 7 1 42.901 27.802  1.018 
14 7 1 15.711 15.432 37.779 
15 8 1  2.299 14.715 13.427 
16 8 1 33.801 30.573 46.896 
17 9 1 39.258  8.405 15.345 
18 9 1 48.181 27.857 20.810 
19 10 1 26.239 12.768 12.820 
20 10 1 22.945 13.387 56.282 
21 11 1 44.608 14.550  3.589 
22 11 1 20.751 20.652 29.373 
23 12 1 13.736 29.666 36.683 
24 12 1 44.039 16.823 -3.708 
25 13 1 20.721  7.692  6.006 
26 13 1 33.625 24.375 53.450 
27 14 1 28.654 38.363 42.907 
28 14 1 27.548 21.804 44.866 
29 15 1 35.093  8.620 38.935 
30 15 1 39.452 42.082 10.373 
31 16 1 50.135  8.011 19.251 
32 16 1 -0.778 31.784 -2.027 
33 17 1 18.463 17.667 21.746 
34 17 1 14.349 29.104 55.637 
35 18 1 19.396  9.511 28.825 
36 18 1 20.054  8.823 56.148 
37 19 1 26.800 39.411 21.547 
38 19 1 19.415 10.551 -3.210 
39 20 1 28.003 27.123 -2.697 
40 20 1 45.482 36.028 47.276 
41 21 1 21.664 32.448 47.049 
42 21 1 46.919 11.544  7.550 
43 22 1 40.783 34.043 46.641 
44 22 1 35.601 35.265 18.604 
45 23 1 44.076 41.691 31.414 
46 23 1 12.461 34.748 48.629 
47 24 1 31.827 14.716  4.194 
48 24 1  2.205 34.480 50.975 
49 25 1 46.095 25.309 25.079 
50 25 1 39.217 34.442 32.860 
51 1 1 12.465 25.378 17.016 
52 1 1 10.332 26.106 16.489 
53 1 1  8.483 27.752 16.912 
54 1 1  6.953 29.711 17.516 
55 1 1  5.517 31.727 17.877 
56 1 1  4.123 33.708 18.579 
57 1 1  2.745 35.656 19.406 
58 1 1  0.856 37.238 20.101 
59 1 1 -0.637 38.850 21.406 
60 1 1 48.698 40.384 22.755 
61 1 1 47.253 42.101 23.017 
62 1 1 45.803  7.879 22.156 
63 1 1 45.638  8.539 19.665 
64 1 1 45.781  9.510 17.361 
65 1 1 46.782 10.192 15.450 
66 1 1 48.682 10.383 13.751 
67 1 1 50.645 10.712 12.201 
68 1 1  1.939 10.725 10.609 
69 1 1  2.846 11.468  8.703 
70 1 1  2.759 13.043  6.688 
71 1 1  3.269 15.611  6.645 
72 1 1  4.169 18.076  6.366 
73 1 1  4.730 20.209  7.058 
74 1 1  4.723 21.988  8.899 
75 1 1  2.800 23.009  9.792 
76 1 1  0.757 23.700 10.593 
77 1 1 49.456 23.803 12.208 
78 1 1 49.728 25.212 14.113 
79 1 1 -0.303 27.321 15.133 
80 1 1  0.519 29.047 16.524 
81 1 1 -0.190 30.821 18.316 
82 1 1 -0.825 32.535 20.122 
83 1 1 49.343 34.047 22.042 
84 1 1 47.895 35.547 23.599 
85 1 1 48.446 35.603 25.861 
86 1 1 50.511 35.591 27.572 
87 1 1  1.686 35.996 29.210 
88 1 1  3.580 36.871 30.658 
89 1 1  4.636 37.954 32.432 
90 1 1  5.183 38.151 34.630 
91 1 1  6.165 37.326 36.874 
92 1 1  5.356 35.934 39.013 
93 1 1  4.706 34.368 41.123 
94 1 1  3.094 33.465 42.560 
95 1 1  1.178 32.638 40.987 
96 1 1  0.050 31.959 39.019 
97 1 1  0.027 31.308 36.472 
98 1 1 -0.146 30.577 33.898 
99 1 1 -1.477 31.917 32.647 
100 1 1 47.753 32.749 31.051 
101 1 1 46.144 33.416 29.746 
102 1 1 43.941 33.045 28.552 
103 1 1 42.143 31.269 29.169 
104 1 1 40.378 29.495 29.924 
105 1 1 38.724 27.810 31.022 
106 1 1 36.947 26.236 32.030 
107 1 1 35.202 24.673 32.975 
108 1 1 34.402 23.087 34.454 
109 1 1 34.495 21.444 36.459 
110 1 1 34.281 19.465 37.787 
111 1 1 34.245 16.916 38.423 
112 1 1 36.408 15.944 38.524 
113 1 1 38.978 15.708 38.008 
114 1 1 40.626 17.516 38.305 
115 1 1 42.600 19.126 38.888 
116 1 1 43.858 20.275 36.966 
117 1 1 44.747 21.627 34.920 
118 1 1 45.512 24.082 34.949 
119 1 1 46.566 26.376 35.186 
120 1 1 49.035 26.823 35.732 
121 1 1  0.160 26.645 37.072 
122 1 1  1.682 25.201 38.294 
123 1 1  3.861 24.357 38.279 
124 1 1  5.195 24.394 36.024 
125 1 1  6.222 24.495 33.659 
126 1 1  6.693 26.671 32.285 
127 1 1  6.041 28.688 31.621 
128 1 1  5.515 30.868 31.188 
129 2 1  1.803 17.183 53.471 
130 2 1  1.674 14.882 54.635 
131 2 1  1.915 12.684 55.901 
132 2 1  2.159 12.306 -4.978 
133 2 1  2.275 11.590 -2.435 
134 2 1  2.498 11.127  0.077 
135 2 1  3.865 11.493  1.861 
136 2 1  5.666 12.937  3.029 
137 2 1  7.084 14.854  4.104 
138 2 1  8.499 16.814  5.093 
139 2 1  9.802 18.937  6.032 
140 2 1  9.911 21.024  7.245 
141 2 1  9.247 23.182  8.448 
142 2 1  8.783 25.419  9.664 
143 2 1  8.510 27.621 10.883 
144 2 1  8.245 29.690 12.407 
145 2 1  6.056 31.055 12.512 
146 2 1  3.665 32.191 12.748 
147 2 1  1.275 33.041 13.161 
148 2 1 -0.964 34.008 13.716 
149 2 1 48.258 35.813 14.214 
150 2 1 48.692 36.670 16.392 
151 2 1 46.885 37.666 17.903 
152 2 1 45.740 39.333 19.079 
153 2 1 46.297 40.992 17.556 
154 2 1 47.250 41.453 15.447 
155 2 1 49.397 41.891 14.214 
156 2 1  0.348 40.310 13.191 
157 2 1  2.033 38.792 12.006 
158 2 1  3.693 37.039 10.952 
159 2 1  5.234 35.211 10.003 
160 2 1  6.955 33.441  9.337 
161 2 1  8.903 31.894  8.734 
162 2 1 10.077 30.144  7.805 
163 2 1 10.385 28.085  6.377 
164 2 1 10.767 25.890  5.089 
165 2 1 11.206 23.766  3.710 
166 2 1 11.558 21.525  2.544 
167 2 1 11.861 19.055  1.765 
168 2 1 11.623 16.610  1.325 
169 2 1 11.152 14.204  0.579 
170 2 1 10.559 11.854  0.011 
171 2 1  8.829  9.955  0.023 
172 2 1  6.978  8.058 -0.197 
173 2 1  5.600  7.516 -2.365 
174 2 1  4.089  7.148 -4.419 
175 2 1  2.224  7.122 -6.205 
176 2 1  0.661  6.753 55.235 
177 2 1 -0.539 42.138 53.097 
178 2 1 48.575 41.784 51.165 
179 2 1 46.978 41.450 49.147 
180 2 1 45.290 41.859 47.236 
181 2 1 43.771  6.529 45.384 
182 2 1 43.094  7.454 43.441 
183 2 1 43.278  9.454 41.797 
184 2 1 43.991 11.244 40.078 
185 2 1 45.050 12.945 38.298 
186 2 1 46.122 15.319 38.681 
187 2 1 46.664 16.922 36.757 
188 2 1 47.332 18.463 34.704 
189 2 1 47.517 20.146 32.693 
190 2 1 48.162 21.536 30.656 
191 2 1 49.317 22.638 28.731 
192 2 1 50.198 24.106 26.882 
193 2 1  0.269 25.995 25.350 
194 2 1  1.254 28.017 24.047 
195 2 1  2.185 29.694 22.352 
196 2 1  2.831 31.887 23.110 
197 2 1  2.614 34.349 23.897 
198 2 1  2.512 36.714 24.620 
199 2 1  2.225 39.107 25.539 
200 2 1  0.089 40.382 26.316 
201 2 1 49.044 41.917 27.232 
202 2 1 47.369  7.408 28.383 
203 2 1 46.261  9.478 27.194 
204 2 1 45.485 11.695 25.981 
205 2 1 44.857 13.930 24.830 
206 2 1 44.487 16.247 23.735 
207 3 1 17.539 15.803  7.608 
208 3 1 17.899 18.286  7.417 
209 3 1 17.719 19.902  9.302 
210 3 1 18.457 22.378  9.391 
211 3 1 18.903 24.910  9.499 
212 3 1 18.981 27.447  9.987 
213 3 1 17.889 29.388 10.035 
214 3 1 16.594 31.242 10.516 
215 3 1 15.982 33.363 11.831 
216 3 1 15.437 35.209 13.594 
217 3 1 15.690 37.382 14.616 
218 3 1 16.109 39.886 14.914 
219 3 1 16.959 41.931 16.312 
220 3 1 17.656  7.393 18.122 
221 3 1 18.143  8.926 20.056 
222 3 1 18.612 10.557 21.944 
223 3 1 19.291 12.474 23.672 
224 3 1 19.977 13.920 25.542 
225 3 1 20.349 16.215 25.489 
226 3 1 18.735 17.518 26.978 
227 3 1 16.651 18.423 28.269 
228 3 1 15.168 20.597 28.266 
229 3 1 13.755 22.696 28.548 
230 3 1 13.038 24.586 29.656 
231 3 1 13.027 26.390 31.580 
232 3 1 12.329 25.726 34.000 
233 3 1 11.364 25.120 36.294 
234 3 1 10.661 23.850 38.316 
235 3 1 10.469 22.468 40.444 
236 3 1 10.661 21.096 42.607 
237 3 1 11.119 19.621 44.672 
238 3 1 12.028 20.389 47.075 
239 3 1 13.029 18.920 48.880 
240 3 1 13.670 17.692 51.036 
241 3 1 14.319 16.355 53.186 
242 3 1 16.676 15.231 53.495 
243 3 1 17.064 13.437 55.314 
244 3 1 17.697 14.043 -5.713 
245 3 1 17.830 14.966 -3.344 
246 3 1 17.510 16.371 -1.191 
247 3 1 17.298 15.199  0.860 
248 3 1 17.714 13.076  1.679 
249 3 1 17.796 10.525  1.896 
250 3 1 17.807  8.077  2.337 
251 3 1 16.393  6.372  0.957 
252 3 1 17.408 40.415 -0.100 
253 3 1 18.327 38.272 -1.334 
254 3 1 18.874 35.809 -2.170 
255 3 1 19.366 33.360 -3.003 
256 3 1 20.207 31.101 -3.795 
257 3 1 20.740 28.625 -4.451 
258 3 1 21.472 28.284 -6.642 
259 3 1 23.273 28.110 54.868 
260 3 1 25.799 27.621 55.284 
261 3 1 28.361 27.783 55.636 
262 3 1 30.862 28.080 -7.133 
263 3 1 32.664 29.998 -6.949 
264 3 1 34.549 31.629 -6.805 
265 3 1 36.154 33.652 -7.021 
266 3 1 37.936 35.014 -6.331 
267 3 1 39.559 35.885 -4.584 
268 3 1 39.667 35.241 -2.118 
269 3 1 39.745 34.047  0.210 
270 3 1 38.866 32.503  1.695 
271 3 1 36.714 31.240  2.563 
272 3 1 34.748 29.716  2.866 
273 3 1 33.670 29.339  4.958 
274 3 1 33.066 28.605  7.295 
275 3 1 31.532 27.709  8.906 
276 3 1 29.575 27.829 10.082 
277 3 1 27.655 28.936 11.348 
278 3 1 27.872 29.966 13.341 
279 3 1 28.281 30.737 15.473 
280 3 1 29.364 32.613 17.027 
281 3 1 30.421 34.418 18.579 
282 3 1 31.313 36.264 20.102 
283 3 1 31.702 38.453 21.418 
284 3 1 32.173 40.553 22.855 
285 4 1 30.124 35.135 45.916 
286 4 1 27.965 35.816 46.576 
287 4 1 26.191 37.418 47.625 
288 4 1 26.650 39.905 48.134 
289 4 1 27.408 42.212 48.574 
290 4 1 28.336  8.408 49.209 
291 4 1 29.519 10.690 49.848 
292 4 1 31.092 11.309 48.159 
293 4 1 32.808 10.591 46.353 
294 4 1 34.021  8.298 46.169 
295 4 1 35.553  7.360 44.379 
296 4 1 37.060 42.067 42.726 
297 4 1 37.632 41.085 40.732 
298 4 1 36.735 40.289 38.395 
299 4 1 35.827 39.275 36.288 
300 4 1 34.912 37.729 34.504 
301 4 1 33.871 35.749 33.277 
302 4 1 32.281 33.914 32.270 
303 4 1 30.976 32.540 30.807 
304 4 1 29.903 31.170 29.203 
305 4 1 30.497 29.547 27.715 
306 4 1 31.999 28.562 25.890 
307 4 1 33.515 28.028 23.822 
308 4 1 34.252 27.112 21.847 
309 4 1 34.017 25.510 19.743 
310 4 1 33.335 24.266 17.637 
311 4 1 34.920 22.692 16.295 
312 4 1 36.401 21.668 14.332 
313 4 1 36.679 19.132 14.447 
314 4 1 36.455 16.657 15.009 
315 4 1 36.355 14.162 15.608 
316 4 1 36.424 11.853 16.422 
317 4 1 34.906 10.124 17.710 
318 4 1 33.873  7.997 17.120 
319 4 1 31.670  7.074 18.298 
320 4 1 30.090 42.938 20.027 
321 4 1 28.697  7.377 22.067 
322 4 1 27.354  7.112 24.005 
323 4 1 28.046  7.894 25.970 
324 4 1 29.472  9.098 27.375 
325 4 1 31.903  9.777 28.218 
326 4 1 33.742 10.172 29.641 
327 4 1 34.138 11.133 31.725 
328 4 1 34.753 12.451 33.498 
329 4 1 35.808 12.892 35.789 
330 4 1 37.714 11.363 36.977 
331 4 1 39.635  9.960 37.537 
332 4 1 41.843  8.907 36.850 
333 4 1 44.034  8.043 35.861 
334 4 1 46.313  7.244 34.844 
335 4 1 47.984  8.165 32.992 
336 4 1 49.853  8.804 31.381 
337 4 1  0.952 10.463 31.531 
338 4 1  3.063 11.802 31.895 
339 4 1  4.338 13.717 32.235 
340 4 1  5.051 16.178 31.807 
341 4 1  5.923 18.544 31.109 
342 4 1  5.035 20.869 30.532 
343 4 1  4.683 23.276 29.932 
344 4 1  4.409 24.155 27.558 
345 4 1  4.902 24.323 25.336 
346 4 1  6.186 23.913 23.166 
347 4 1  7.652 23.143 21.100 
348 4 1  8.880 22.304 19.054 
349 4 1  9.901 21.128 17.114 
350 4 1 10.968 20.316 15.016 
351 4 1 13.287 21.392 14.230 
352 4 1 15.724 21.972 13.731 
353 4 1 17.851 21.648 14.340 
354 4 1 20.146 21.293 14.424 
355 4 1 21.556 20.993 12.264 
356 4 1 22.642 20.759 10.051 
357 4 1 23.878 20.782  7.717 
358 4 1 22.702 22.170  6.269 
359 4 1 21.424 23.732  5.054 
360 4 1 20.901 25.976  5.171 
361 4 1 20.875 28.428  5.764 
362 4 1 20.785 30.936  5.649 
363 5 1 13.615 23.888  9.088 
364 5 1 13.741 21.347  9.508 
365 5 1 13.364 18.752  9.905 
366 5 1 12.289 16.663  9.692 
367 5 1 10.779 15.010  8.539 
368 5 1  9.474 13.207  7.265 
369 5 1  8.248 11.328  5.940 
370 5 1  7.091  9.241  4.918 
371 5 1  6.790  7.024  4.244 
372 5 1  7.874 40.925  3.474 
373 5 1  8.394 38.698  2.419 
374 5 1  9.097 36.496  1.328 
375 5 1  9.147 34.619 -0.098 
376 5 1  9.005 32.756 -1.505 
377 5 1 10.007 30.612 -2.296 
378 5 1 10.868 28.346 -3.157 
379 5 1 11.218 26.187 -4.365 
380 5 1 11.196 23.886 -5.560 
381 5 1 11.053 21.555 -6.521 
382 5 1 10.643 19.534 55.292 
383 5 1  9.279 18.167 54.078 
384 5 1  8.698 18.497 51.540 
385 5 1  8.068 18.560 49.083 
386 5 1  7.259 18.162 46.685 
387 5 1  6.492 17.235 44.447 
388 5 1  5.956 15.924 42.291 
389 5 1  6.054 15.472 39.973 
390 5 1  6.173 15.866 37.399 
391 5 1  4.547 17.312 36.185 
392 5 1  3.340 19.312 35.187 
393 5 1  2.156 21.303 34.090 
394 5 1  1.480 23.574 33.029 
395 5 1  0.841 25.727 31.868 
396 5 1 -0.844 27.197 31.067 
397 5 1 47.614 28.096 30.415 
398 5 1 45.390 26.867 29.964 
399 5 1 43.974 25.019 29.938 
400 5 1 43.193 22.639 30.487 
401 5 1 42.761 20.164 31.096 
402 5 1 42.356 17.876 32.151 
403 5 1 42.531 15.536 33.240 
404 5 1 42.912 13.146 34.303 
405 5 1 45.152 12.577 33.587 
406 5 1 47.403 12.464 32.256 
407 5 1 47.569 14.083 30.522 
408 5 1 46.796 16.340 29.519 
409 5 1 46.456 18.230 28.141 
410 5 1 46.589 19.887 26.252 
411 5 1 46.645 21.178 24.023 
412 5 1 48.458 22.294 22.476 
413 5 1 -0.370 23.171 21.136 
414 5 1  1.154 24.696 19.845 
415 5 1  3.003 26.109 19.628 
416 5 1  4.961 27.413 20.574 
417 5 1  6.816 28.634 21.913 
418 5 1  8.656 27.323 22.443 
419 5 1 10.879 26.490 22.773 
420 5 1 13.212 26.245 23.812 
421 5 1 14.180 27.246 26.116 
422 5 1 16.187 28.817 26.894 
423 5 1 16.837 30.766 27.853 
424 5 1 16.295 33.135 28.599 
425 5 1 15.967 35.623 29.321 
426 5 1 15.935 38.041 30.031 
427 5 1 14.652 38.930 31.978 
428 5 1 12.668 40.120 31.815 
429 5 1 10.045 40.236 31.566 
430 5 1  8.079 40.974 30.444 
431 5 1  7.377 40.258 28.097 
432 5 1  7.020 39.046 25.951 
433 5 1  7.282 37.363 24.050 
434 5 1  7.454 35.571 22.300 
435 5 1  7.876 34.314 20.028 
436 5 1  9.708 32.468 19.524 
437 5 1 11.215 30.430 19.366 
438 5 1 13.598 30.110 18.283 
439 5 1 16.039 29.780 17.460 
440 5 1 17.755 30.660 16.221 
441 6 1 37.778 41.314 19.299 
442 6 1 40.157 42.232 19.863 
443 6 1 41.951  6.478 21.388 
444 6 1 43.070 40.473 22.355 
445 6 1 43.866 38.239 23.406 
446 6 1 44.878 38.111 25.694 
447 6 1 45.658 38.081 28.147 
448 6 1 46.519 37.863 30.618 
449 6 1 45.347 36.828 32.661 
450 6 1 44.107 36.011 34.761 
451 6 1 42.856 35.357 36.955 
452 6 1 41.012 35.054 38.133 
453 6 1 38.448 34.774 38.260 
454 6 1 35.873 34.678 38.331 
455 6 1 33.310 34.621 38.071 
456 6 1 31.124 34.761 38.683 
457 6 1 29.249 34.411 40.434 
458 6 1 27.205 34.369 42.001 
459 6 1 25.033 34.805 43.212 
460 6 1 23.414 36.361 43.733 
461 6 1 22.361 38.462 44.561 
462 6 1 22.900 40.872 45.415 
463 6 1 23.469  7.247 45.945 
464 6 1 24.406  9.726 46.424 
465 6 1 25.300 12.074 46.756 
466 6 1 26.723 13.838 46.159 
467 6 1 26.315 14.497 43.704 
468 6 1 25.688 15.559 41.662 
469 6 1 24.615 16.398 39.789 
470 6 1 23.607 16.133 37.412 
471 6 1 24.676 16.505 35.073 
472 6 1 25.644 17.456 33.245 
473 6 1 26.474 18.386 31.303 
474 6 1 27.599 19.068 29.458 
475 6 1 28.121 20.758 27.666 
476 6 1 28.674 22.638 25.974 
477 6 1 28.922 24.697 24.402 
478 6 1 27.706 26.933 24.634 
479 6 1 26.436 29.162 24.806 
480 6 1 25.745 31.108 25.822 
481 6 1 25.121 32.042 27.842 
482 6 1 25.322 30.768 30.116 
483 6 1 25.269 29.299 32.356 
484 6 1 24.029 29.994 34.562 
485 6 1 22.618 30.966 36.473 
486 6 1 21.952 30.737 38.974 
487 6 1 21.521 30.591 41.459 
488 6 1 21.764 29.883 43.691 
489 6 1 22.854 27.465 43.564 
490 6 1 24.348 26.160 45.167 
491 6 1 26.407 25.890 46.129 
492 6 1 28.909 26.516 46.300 
493 6 1 31.197 26.414 45.110 
494 6 1 33.477 26.635 44.139 
495 6 1 35.894 27.332 43.606 
496 6 1 38.225 27.412 43.596 
497 6 1 40.733 26.719 43.867 
498 6 1 43.237 26.380 44.317 
499 6 1 45.691 25.991 45.013 
500 6 1 47.870 25.713 46.232 
501 6 1 50.049 25.701 47.562 
502 6 1  1.707 26.037 48.435 
503 6 1  3.373 26.012 46.754 
504 6 1  4.959 27.034 44.988 
505 6 1  6.971 27.904 45.746 
506 6 1  9.194 27.566 47.071 
507 6 1 11.341 27.706 48.343 
508 6 1 13.567 27.841 49.574 
509 6 1 15.780 27.674 50.721 
510 6 1 17.859 28.528 51.530 
511 6 1 19.748 30.397 51.616 
512 6 1 21.733 32.006 51.728 
513 6 1 23.943 32.494 51.245 
514 6 1 26.354 32.226 50.239 
515 6 1 26.800 31.332 47.828 
516 6 1 26.708 30.845 45.342 
517 6 1 28.752 30.184 43.762 
518 6 1 30.621 30.223 41.942 
519 7 1 44.303 26.959 -0.940 
520 7 1 45.584 24.775 -1.391 
521 7 1 46.556 22.395 -2.156 
522 7 1 47.788 20.410 -3.238 
523 7 1 48.859 18.512 -4.485 
524 7 1 50.020 16.577 -4.850 
525 7 1 49.035 14.506 -4.409 
526 7 1 47.235 13.014 -4.548 
527 7 1 45.683 12.318 -2.881 
528 7 1 44.897 11.262 -0.557 
529 7 1 43.993  9.522  0.742 
530 7 1 42.087  7.949  1.332 
531 7 1 40.887  6.476  2.470 
532 7 1 41.884 40.269  2.594 
533 7 1 42.366 37.823  2.975 
534 7 1 42.548 35.320  3.268 
535 7 1 42.810 32.851  4.058 
536 7 1 41.874 30.942  4.890 
537 7 1 39.854 29.419  5.216 
538 7 1 38.109 27.625  5.740 
539 7 1 36.391 25.697  6.026 
540 7 1 34.666 23.788  6.502 
541 7 1 32.192 23.132  5.959 
542 7 1 30.039 21.814  5.461 
543 7 1 28.182 20.135  5.168 
544 7 1 27.654 18.204  6.789 
545 7 1 27.813 16.165  8.009 
546 7 1 29.390 14.253  8.309 
547 7 1 30.574 12.446  9.243 
548 7 1 30.346  9.891  9.436 
549 7 1 29.846  7.333  9.556 
550 7 1 29.371 40.879  9.633 
551 7 1 27.382 39.626 10.722 
552 7 1 25.265 38.421 11.419 
553 7 1 23.055 37.452 12.194 
554 7 1 20.717 36.492 12.457 
555 7 1 20.686 34.199 11.634 
556 7 1 22.096 32.634 10.745 
557 7 1 23.718 31.249  9.648 
558 7 1 24.581 29.817  7.721 
559 7 1 26.090 30.873  6.258 
560 7 1 28.370 32.003  5.411 
561 7 1 30.138 33.522  4.336 
562 7 1 32.754 33.631  4.787 
563 7 1 34.493 35.029  3.641 
564 7 1 36.027 36.653  2.355 
565 7 1 37.214 38.578  1.110 
566 7 1 38.187 40.412 -0.418 
567 7 1 38.864 42.298 -1.978 
568 7 1 39.803  8.241 -3.192 
569 7 1 40.493 10.491 -2.973 
570 7 1 40.926 12.780 -2.002 
571 7 1 41.172 15.024 -0.631 
572 7 1 41.354 17.086  0.874 
573 7 1 41.366 18.658  3.019 
574 7 1 42.535 17.933  5.194 
575 7 1 43.935 17.560  7.403 
576 7 1 44.514 16.891  9.578 
577 7 1 44.967 18.165 11.489 
578 7 1 46.934 19.372 12.780 
579 7 1 49.462 18.876 13.153 
580 7 1  0.290 20.325 14.496 
581 7 1  1.778 21.856 15.910 
582 7 1  4.390 21.624 16.048 
583 7 1  5.545 19.589 15.778 
584 7 1  6.729 17.559 15.649 
585 7 1  8.727 16.022 16.229 
586 7 1 10.839 14.667 16.595 
587 7 1 11.767 12.517 17.385 
588 7 1 12.250 10.148 18.434 
589 7 1 13.072  9.667 20.814 
590 7 1 13.733  9.580 23.389 
591 7 1 14.513  9.685 25.811 
592 7 1 14.710 11.005 27.689 
593 7 1 14.086 12.885 29.349 
594 7 1 14.650 14.573 30.756 
595 7 1 15.447 15.409 32.679 
596 7 1 15.515 15.700 35.222 
597 8 1  1.349 15.700 11.510 
598 8 1  0.970 17.549  9.736 
599 8 1 -0.089 18.935  8.031 
600 8 1 49.457 17.116  7.157 
601 8 1 49.060 15.315  5.274 
602 8 1 48.889 13.279  3.693 
603 8 1 48.901 11.158  2.166 
604 8 1 48.877  9.907 -0.233 
605 8 1 48.429  9.135 -2.662 
606 8 1 47.924  8.458 -5.062 
607 8 1 46.677  7.898 -7.021 
608 8 1 45.233  7.977 54.241 
609 8 1 44.079  7.642 52.013 
610 8 1 43.602  9.298 50.009 
611 8 1 44.148 10.407 47.997 
612 8 1 45.684 10.925 45.965 
613 8 1 46.548 12.024 44.220 
614 8 1 47.309 13.823 42.920 
615 8 1 48.908 15.662 42.209 
616 8 1 48.842 17.920 42.459 
617 8 1 48.464 20.122 43.011 
618 8 1 47.882 21.566 44.736 
619 8 1 48.194 20.869 47.139 
620 8 1 48.151 20.289 49.689 
621 8 1 48.040 18.935 51.660 
622 8 1 48.241 16.805 53.081 
623 8 1 47.804 14.723 54.449 
624 8 1 48.720 12.323 54.406 
625 8 1 49.639 10.707 53.136 
626 8 1 48.382 10.676 50.864 
627 8 1 48.958 12.370 49.286 
628 8 1 49.799 14.038 48.111 
629 8 1  0.051 15.620 46.668 
630 8 1  1.172 17.819 46.040 
631 8 1  2.726 19.760 46.417 
632 8 1  2.556 21.164 48.302 
633 8 1  2.524 21.623 50.892 
634 8 1  4.322 22.997 51.958 
635 8 1  6.320 24.044 52.087 
636 8 1  6.873 23.424 54.277 
637 8 1  6.525 23.768 -6.538 
638 8 1  5.891 24.213 -4.122 
639 8 1  4.944 24.850 -1.762 
640 8 1  3.810 25.836  0.285 
641 8 1  1.981 26.454  1.924 
642 8 1  1.106 28.568  2.344 
643 8 1  0.146 30.692  2.627 
644 8 1 48.954 32.343  2.342 
645 8 1 46.639 31.725  1.140 
646 8 1 45.687 33.614  0.293 
647 8 1 44.922 35.505 -0.777 
648 8 1 44.193 36.279 -2.907 
649 8 1 44.132 36.785 -5.524 
650 8 1 42.849 35.772 -7.477 
651 8 1 41.549 35.144 53.759 
652 8 1 39.740 34.368 52.497 
653 8 1 37.661 32.897 52.112 
654 8 1 35.830 31.119 51.805 
655 8 1 36.613 29.138 52.554 
656 8 1 38.184 27.909 53.729 
657 8 1 39.985 29.451 54.714 
658 8 1 41.992 30.838 55.564 
659 8 1 44.150 32.139 56.137 
660 8 1 46.216 33.491 -6.360 
661 8 1 48.259 34.559 -5.323 
662 8 1 50.330 35.467 -4.066 
663 8 1  1.462 36.761 -3.677 
664 8 1  3.217 37.827 -4.922 
665 8 1  2.901 38.160 -7.468 
666 8 1  1.550 38.237 54.032 
667 8 1 -0.240 36.415 54.105 
668 8 1 48.602 34.884 53.242 
669 8 1 46.585 33.598 52.254 
670 8 1 44.625 32.248 51.224 
671 8 1 42.762 30.794 50.178 
672 8 1 41.167 29.454 48.816 
673 8 1 38.617 29.515 48.179 
674 8 1 36.206 29.832 47.408 
675 9 1 41.848  7.731 15.344 
676 9 1 43.296  7.808 13.224 
677 9 1 44.563  8.364 11.054 
678 9 1 47.055  7.654 10.455 
679 9 1 49.540  7.127 10.094 
680 9 1  1.284  6.621  9.643 
681 9 1  3.553 42.084  8.754 
682 9 1  5.339 40.708  7.872 
683 9 1  6.861 38.663  7.184 
684 9 1  8.302 36.701  6.401 
685 9 1  9.397 34.726  5.093 
686 9 1 10.477 32.930  3.706 
687 9 1 11.441 31.078  2.238 
688 9 1 12.584 29.089  1.041 
689 9 1 13.738 26.799  0.482 
690 9 1 14.952 24.608  0.170 
691 9 1 16.512 22.525  0.191 
692 9 1 18.287 20.723  0.543 
693 9 1 19.515 19.491  2.286 
694 9 1 20.585 18.037  3.831 
695 9 1 21.796 15.954  4.524 
696 9 1 21.199 13.453  4.946 
697 9 1 21.823 11.282  3.755 
698 9 1 22.676  9.295  2.454 
699 9 1 22.960  7.726  0.764 
700 9 1 22.001  6.669 -1.382 
701 9 1 20.790 41.910 -3.524 
702 9 1 18.204 41.945 -3.968 
703 9 1 16.239 42.814 -4.672 
704 9 1 14.837  8.511 -5.708 
705 9 1 13.522 10.182 -7.054 
706 9 1 12.481 11.934 54.671 
707 9 1 12.002 11.971 52.171 
708 9 1 14.093 12.355 51.055 
709 9 1 15.092 10.403 49.613 
710 9 1 16.268  9.103 47.636 
711 9 1 17.611  8.536 45.490 
712 9 1 18.425  6.382 45.205 
713 9 1 17.692 40.053 45.071 
714 9 1 16.556 37.764 45.136 
715 9 1 16.003 35.586 45.797 
716 9 1 17.395 34.075 44.525 
717 9 1 18.628 34.037 42.586 
718 9 1 20.263 34.816 40.759 
719 9 1 22.072 35.522 39.135 
720 9 1 24.465 36.320 38.184 
721 9 1 26.778 37.315 37.426 
722 9 1 29.175 38.045 37.082 
723 9 1 31.070 38.897 35.722 
724 9 1 30.323 38.079 33.712 
725 9 1 29.431 37.164 31.795 
726 9 1 28.137 36.480 30.071 
727 9 1 26.252 36.321 28.625 
728 9 1 24.754 37.060 26.530 
729 9 1 23.562 37.480 24.339 
730 9 1 22.472 37.845 21.990 
731 9 1 20.245 39.115 21.887 
732 9 1 18.004 40.324 22.064 
733 9 1 15.665 41.335 21.879 
734 9 1 14.176 41.258 19.846 
735 9 1 12.383 41.012 18.171 
736 9 1 10.575 39.881 17.385 
737 9 1  8.808 38.771 18.893 
738 9 1  6.624 38.706 19.736 
739 9 1  5.110 39.888 20.973 
740 9 1  3.765 41.300 22.288 
741 9 1  2.097  6.892 23.255 
742 9 1  0.950  8.566 24.762 
743 9 1  0.055  9.975 26.703 
744 9 1 -0.964 12.401 26.339 
745 9 1 49.465 14.620 25.571 
746 9 1 -0.396 16.712 24.217 
747 9 1 49.731 17.251 21.749 
748 9 1 48.999 17.667 19.264 
749 9 1 48.276 19.861 18.056 
750 9 1 46.972 21.732 17.587 
751 9 1 46.538 23.904 18.172 
752 9 1 47.241 25.939 19.501 
753 10 1 25.280 13.707 14.941 
754 10 1 25.454 14.874 16.991 
755 10 1 26.824 15.668 19.155 
756 10 1 29.319 16.366 19.459 
757 10 1 30.285 16.991 21.881 
758 10 1 31.132 17.690 24.239 
759 10 1 32.078 18.555 26.434 
760 10 1 32.824 19.558 28.723 
761 10 1 32.373 20.088 30.930 
762 10 1 30.728 21.247 32.055 
763 10 1 29.693 22.808 33.183 
764 10 1 28.121 23.628 34.961 
765 10 1 26.559 24.934 36.190 
766 10 1 24.779 26.213 36.902 
767 10 1 22.499 26.301 38.098 
768 10 1 20.796 24.785 39.430 
769 10 1 18.924 23.589 40.713 
770 10 1 16.772 22.487 41.528 
771 10 1 15.490 20.671 41.908 
772 10 1 14.955 18.192 41.862 
773 10 1 14.897 15.691 42.322 
774 10 1 15.209 13.165 42.788 
775 10 1 14.548 11.151 43.555 
776 10 1 12.755  9.851 44.927 
777 10 1 11.076  8.727 46.572 
778 10 1  9.301  9.776 48.148 
779 10 1  7.068 10.016 48.644 
780 10 1  6.673  7.583 48.383 
781 10 1  7.323  6.140 46.340 
782 10 1  8.506 42.211 44.291 
783 10 1 10.015  7.115 42.500 
784 10 1 11.201  7.636 40.404 
785 10 1 10.594  9.671 39.456 
786 10 1 10.585 12.329 39.724 
787 10 1 10.613 14.886 40.129 
788 10 1 10.327 17.272 39.612 
789 10 1 11.788 18.736 38.301 
790 10 1 13.635 20.452 37.721 
791 10 1 15.358 22.294 37.116 
792 10 1 17.158 23.632 36.153 
793 10 1 16.769 25.824 35.473 
794 10 1 18.390 27.479 36.713 
795 10 1 17.834 28.567 39.038 
796 10 1 17.164 29.282 41.431 
797 10 1 16.311 28.616 43.550 
798 10 1 17.790 26.784 44.608 
799 10 1 19.257 26.438 46.380 
800 10 1 20.756 27.637 47.985 
801 10 1 22.721 27.839 49.205 
802 10 1 25.000 27.336 50.064 
803 10 1 27.363 26.802 50.813 
804 10 1 29.613 27.090 50.752 
805 10 1 31.697 28.294 50.810 
806 10 1 31.802 30.804 50.646 
807 10 1 30.695 31.829 52.454 
808 10 1 28.732 32.168 54.065 
809 10 1 26.981 32.274 55.882 
810 10 1 25.494 32.509 -5.438 
811 10 1 25.446 33.230 -3.342 
812 10 1 25.335 34.160 -1.295 
813 10 1 25.326 35.318  0.661 
814 10 1 26.676 36.280  2.657 
815 10 1 28.487 37.109  4.466 
816 10 1 30.044 38.221  6.098 
817 10 1 32.604 38.686  5.713 
818 10 1 33.744 40.309  4.096 
819 10 1 34.713 42.666  3.522 
820 10 1 35.735  8.842  2.864 
821 10 1 36.812 11.117  2.338 
822 10 1 37.058 13.529  1.947 
823 10 1 36.732 15.956  1.154 
824 10 1 34.532 16.848  0.774 
825 10 1 32.152 17.657  1.373 
826 10 1 29.960 17.738  0.961 
827 10 1 27.783 17.380 -0.345 
828 10 1 27.349 16.047 -2.486 
829 10 1 26.114 14.277 -4.032 
830 10 1 24.861 12.530 -5.548 
831 11 1 43.832 12.381  4.606 
832 11 1 43.431 10.012  5.602 
833 11 1 43.390  7.576  6.404 
834 11 1 43.300 41.193  7.157 
835 11 1 42.961 38.645  7.507 
836 11 1 41.582 37.043  9.160 
837 11 1 40.380 36.664 11.100 
838 11 1 38.559 36.674 12.413 
839 11 1 36.370 35.564 13.129 
840 11 1 36.007 33.525 14.688 
841 11 1 35.271 31.548 16.094 
842 11 1 35.368 29.547 17.459 
843 11 1 37.172 27.830 16.693 
844 11 1 38.556 25.717 15.934 
845 11 1 41.021 25.727 15.170 
846 11 1 43.180 26.027 13.729 
847 11 1 44.894 24.341 12.730 
848 11 1 45.231 23.393 10.375 
849 11 1 45.783 22.373  8.091 
850 11 1 46.345 21.176  5.826 
851 11 1 46.844 19.949  3.663 
852 11 1 47.105 18.330  1.766 
853 11 1 46.745 16.210  0.134 
854 11 1 48.912 15.367 -0.370 
855 11 1  0.611 14.895  0.017 
856 11 1  1.854 15.245  2.260 
857 11 1  2.196 17.486  2.741 
858 11 1  1.573 19.827  3.590 
859 11 1  1.101 21.953  4.928 
860 11 1  0.516 24.145  5.992 
861 11 1 -0.337 26.364  6.916 
862 11 1 49.275 28.344  8.033 
863 11 1 48.105 30.041  9.506 
864 11 1 47.838 29.930 12.166 
865 11 1 45.982 28.933 13.642 
866 11 1 45.710 28.799 16.177 
867 11 1 43.562 29.009 17.710 
868 11 1 41.634 28.726 19.321 
869 11 1 40.140 27.740 21.122 
870 11 1 39.015 25.980 22.228 
871 11 1 38.061 23.632 22.310 
872 11 1 37.559 21.166 22.732 
873 11 1 37.218 18.728 23.536 
874 11 1 36.150 16.453 24.320 
875 11 1 34.791 14.547 25.362 
876 11 1 34.101 13.601 27.240 
877 11 1 32.600 15.132 28.698 
878 11 1 31.095 15.750 30.744 
879 11 1 32.453 16.325 32.611 
880 11 1 34.581 16.802 33.978 
881 11 1 36.573 18.424 33.218 
882 11 1 38.424 19.444 34.728 
883 11 1 39.737 21.492 34.380 
884 11 1 40.647 23.909 34.248 
885 11 1 41.454 26.286 33.888 
886 11 1 42.459 28.733 33.780 
887 11 1 43.778 30.950 33.694 
888 11 1 44.529 31.544 35.838 
889 11 1 45.597 31.152 38.166 
890 11 1 46.313 30.595 40.555 
891 11 1 46.614 28.206 40.860 
892 11 1 47.391 25.606 40.504 
893 11 1 47.137 23.321 40.141 
894 11 1 48.154 22.237 38.430 
895 11 1 49.896 20.614 37.342 
896 11 1  0.152 18.509 38.302 
897 11 1  1.175 16.158 38.891 
898 11 1  2.353 13.942 38.944 
899 11 1  3.678 11.799 38.433 
900 11 1  5.261 10.452 37.352 
901 11 1  7.502 10.551 35.969 
902 11 1  8.592 12.826 35.111 
903 11 1  9.688 14.981 34.225 
904 11 1 10.965 17.032 33.596 
905 11 1 12.679 18.922 33.356 
906 11 1 14.257 20.975 33.333 
907 11 1 16.626 21.135 32.269 
908 11 1 18.900 21.028 31.036 
909 12 1 13.323 28.321 38.849 
910 12 1 12.790 26.989 40.903 
911 12 1 12.136 25.768 43.094 
912 12 1 12.766 24.815 45.004 
913 12 1 14.421 24.106 46.890 
914 12 1 15.885 23.022 48.529 
915 12 1 18.328 23.423 48.945 
916 12 1 20.832 23.467 49.672 
917 12 1 23.090 22.823 49.302 
918 12 1 23.074 20.438 48.245 
919 12 1 24.739 19.054 48.929 
920 12 1 26.040 17.635 50.652 
921 12 1 24.804 16.275 52.427 
922 12 1 24.471 17.037 54.826 
923 12 1 24.642 18.454 -6.579 
924 12 1 25.005 20.361 -4.953 
925 12 1 26.732 20.865 -3.126 
926 12 1 28.355 21.749 -1.197 
927 12 1 29.965 22.917  0.439 
928 12 1 31.680 24.292  1.257 
929 12 1 33.785 25.086  1.620 
930 12 1 35.990 25.816  1.466 
931 12 1 38.064 27.156  0.572 
932 12 1 39.474 26.592 -1.537 
933 12 1 41.040 26.113 -3.470 
934 12 1 42.308 24.736 -4.772 
935 12 1 42.751 22.334 -5.648 
936 12 1 40.881 20.927 -6.791 
937 12 1 39.641 19.171 -5.594 
938 12 1 38.239 17.206 -4.657 
939 12 1 37.122 15.252 -3.466 
940 12 1 36.182 13.007 -2.481 
941 12 1 34.892 10.888 -1.550 
942 12 1 33.587  8.818 -0.844 
943 12 1 32.800  6.411 -0.332 
944 12 1 32.127 40.133  0.106 
945 12 1 31.317 37.646  0.247 
946 12 1 30.941 35.124  0.443 
947 12 1 30.511 32.571  0.705 
948 12 1 30.043 30.074  1.215 
949 12 1 29.704 27.600  1.960 
950 12 1 28.288 26.803  3.996 
951 12 1 26.948 25.950  6.028 
952 12 1 25.997 25.118  8.314 
953 12 1 24.658 25.456 10.203 
954 12 1 23.362 26.989 11.754 
955 12 1 22.150 28.433 13.591 
956 12 1 23.101 30.583 14.598 
957 12 1 23.976 32.886 15.606 
958 12 1 25.184 35.080 16.427 
959 12 1 23.579 36.646 17.231 
960 12 1 21.178 36.962 17.631 
961 12 1 18.664 37.105 18.019 
962 12 1 16.206 37.214 18.633 
963 12 1 15.158 35.993 20.700 
964 12 1 13.068 36.586 21.333 
965 12 1 11.673 38.650 22.075 
966 12 1 10.569 40.857 22.846 
967 12 1  9.542  6.796 22.809 
968 12 1  7.522  8.366 22.373 
969 12 1  5.589  9.919 21.766 
970 12 1  3.443 11.227 21.343 
971 12 1  0.903 12.017 21.273 
972 12 1 49.231 12.847 21.251 
973 12 1 46.655 13.262 21.363 
974 12 1 45.539 13.924 19.432 
975 12 1 44.750 15.470 17.523 
976 12 1 43.537 17.014 15.924 
977 12 1 42.555 19.062 14.744 
978 12 1 41.730 21.054 13.458 
979 12 1 40.468 22.701 12.014 
980 12 1 40.342 23.324  9.457 
981 12 1 40.881 24.120  7.020 
982 12 1 41.525 23.625  4.854 
983 12 1 42.144 23.038  2.598 
984 12 1 42.784 22.476  0.428 
985 12 1 41.965 20.932 -1.466 
986 12 1 42.942 18.811 -2.598 