LAMMPS data file generated by aa2cg.

2000 atoms
1 atom types
1975 bonds
1 bond types
1950 angles
1 angle types
1925 dihedrals
1 dihedral types

 0.000 46.909 xlo xhi
 0.000 46.688 ylo yhi
 0.000 52.803 zlo zhi

Masses

1 24.022

Atoms # molecular

1 1 1 13.096  8.844 25.409 
2 1 1 16.837 23.694 15.524 
3 2 1  7.959  4.196 12.265 
4 2 1  7.084 44.338 35.306 
5 3 1  6.801  2.147 34.199 
6 3 1 21.902 22.435 46.885 
7 4 1  4.987 11.774 42.473 
8 4 1  8.745 31.407 27.741 
9 5 1 39.929 17.387 46.407 
10 5 1 24.940 20.089 20.225 
11 6 1 11.314  4.072 26.485 
12 6 1 14.230 42.100  8.967 
13 7 1 14.696 21.872 37.886 
14 7 1 29.881 33.969 31.718 
15 8 1 16.535 17.927 48.619 
16 8 1 34.433 31.638 32.231 
17 9 1  8.665 15.391  4.462 
18 9 1 33.260 10.727  3.447 
19 10 1  8.897  2.885  1.917 
20 10 1 44.723 36.970  9.771 
21 11 1 18.157  9.077 26.398 
22 11 1 21.702  7.802 41.984 
23 12 1 12.374 44.790 22.953 
24 12 1 21.295 37.480 28.523 
25 13 1  6.033  2.193  9.435 
26 13 1  8.824  3.764 30.699 
27 14 1 18.908 41.090 32.186 
28 14 1 14.820 19.991  7.499 
29 15 1 14.784 32.217  9.915 
30 15 1 18.081 33.067  7.283 
31 16 1 35.230  8.125 17.650 
32 16 1 31.114  7.888  7.172 
33 17 1 13.154 38.703 35.105 
34 17 1  6.177 28.661 42.086 
35 18 1 23.469 10.961 -2.042 
36 18 1 36.544 28.068 34.808 
37 19 1  7.350 45.248  6.460 
38 19 1 15.713 43.489 13.533 
39 20 1  5.547 42.264 41.920 
40 20 1 10.988 29.816 36.951 
41 21 1 28.037 25.286 35.099 
42 21 1 22.354 45.631 10.548 
43 22 1 32.073 45.531 18.910 
44 22 1 18.949 37.022 43.055 
45 23 1 28.605 23.020 13.579 
46 23 1 11.736  1.763 33.346 
47 24 1 21.843  9.551 31.138 
48 24 1 36.157 44.073 11.630 
49 25 1  5.129 32.568  7.426 
50 25 1  7.438 37.044  5.195 
51 1 1 11.097  8.116 24.468 
52 1 1  9.175  7.006 24.033 
53 1 1  8.139  4.814 23.291 
54 1 1  7.776  2.499 23.676 
55 1 1  8.044 46.901 24.756 
56 1 1  7.139 45.162 25.940 
57 1 1  5.949 45.534 28.189 
58 1 1  4.065 46.329 29.752 
59 1 1  2.119 47.589 30.016 
60 1 1 47.279  2.690 29.316 
61 1 1 45.916  4.524 28.282 
62 1 1 44.376  6.231 27.136 
63 1 1 42.735  8.052 26.219 
64 1 1 42.947  9.300 23.990 
65 1 1 43.076 10.531 21.731 
66 1 1 43.236 12.152 19.727 
67 1 1 43.876 12.732 17.658 
68 1 1 43.761 12.926 15.263 
69 1 1 43.792 12.938 12.969 
70 1 1 42.889 10.940 11.592 
71 1 1 42.079  8.755 10.467 
72 1 1 41.008  6.498  9.700 
73 1 1 39.478  4.618  9.005 
74 1 1 37.734  2.796  8.510 
75 1 1 35.844  0.961  8.397 
76 1 1 34.969 45.579  7.161 
77 1 1 34.150 43.351  6.076 
78 1 1 34.287 41.560  4.613 
79 1 1 34.492 39.903  2.891 
80 1 1 33.025 38.928  1.428 
81 1 1 30.918 39.551  2.529 
82 1 1 29.400 40.146  4.635 
83 1 1 29.313 42.424  5.796 
84 1 1 29.911 44.564  6.984 
85 1 1 30.537 46.629  8.345 
86 1 1 31.254  2.091  9.538 
87 1 1 32.403  4.185 10.670 
88 1 1 33.638  6.250 11.462 
89 1 1 33.877  8.513 11.532 
90 1 1 34.045 10.924 11.735 
91 1 1 34.059 11.600 14.286 
92 1 1 34.288 12.031 16.789 
93 1 1 34.170 12.820 19.121 
94 1 1 32.147 14.345 19.314 
95 1 1 30.172 16.078 19.497 
96 1 1 28.207 17.072 18.834 
97 1 1 28.231 18.339 16.552 
98 1 1 26.240 18.899 14.927 
99 1 1 24.223 19.419 13.400 
100 1 1 24.491 20.807 11.242 
101 1 1 25.810 22.106  9.777 
102 1 1 28.031 23.414  9.511 
103 1 1 30.206 24.528  9.094 
104 1 1 31.378 25.842  7.578 
105 1 1 31.813 27.370  5.611 
106 1 1 32.267 29.394  4.087 
107 1 1 32.523 31.785  3.708 
108 1 1 33.074 34.202  4.364 
109 1 1 32.137 35.402  6.466 
110 1 1 31.760 35.916  8.738 
111 1 1 31.237 35.504 10.907 
112 1 1 31.978 33.413 11.611 
113 1 1 33.465 31.706 11.336 
114 1 1 34.695 30.059  9.782 
115 1 1 35.641 28.371  7.934 
116 1 1 36.425 26.348  7.385 
117 1 1 36.466 23.719  7.666 
118 1 1 34.483 22.122  8.510 
119 1 1 32.524 20.687  9.224 
120 1 1 30.733 19.034 10.028 
121 1 1 28.948 17.490 11.093 
122 1 1 27.091 16.157 10.625 
123 1 1 25.063 15.784  9.082 
124 1 1 22.866 15.883  8.572 
125 1 1 20.486 16.846  8.787 
126 1 1 19.563 18.594 10.446 
127 1 1 18.653 20.313 12.044 
128 1 1 17.761 21.871 13.943 
129 2 1  9.036  3.605 14.237 
130 2 1  9.819  3.591 16.729 
131 2 1 10.343  2.925 18.873 
132 2 1 11.120  1.839 21.038 
133 2 1 13.096  2.701 22.438 
134 2 1 14.997  3.168 24.081 
135 2 1 16.916  3.906 25.649 
136 2 1 18.924  4.530 27.101 
137 2 1 19.597  3.447 29.342 
138 2 1 20.330  2.289 31.539 
139 2 1 20.685  0.715 33.444 
140 2 1 20.742 45.125 34.637 
141 2 1 21.637 43.033 35.191 
142 2 1 23.127 40.912 35.689 
143 2 1 25.574 40.617 35.151 
144 2 1 27.010 40.677 33.359 
145 2 1 28.277 41.478 31.552 
146 2 1 30.228 42.770 30.520 
147 2 1 32.581 43.577 29.814 
148 2 1 35.023 44.368 29.185 
149 2 1 35.741 46.712 28.232 
150 2 1 37.445  1.769 29.350 
151 2 1 37.661  3.498 30.880 
152 2 1 37.319  4.341 33.227 
153 2 1 37.470  5.043 35.710 
154 2 1 38.313  3.901 37.956 
155 2 1 39.699  4.926 39.592 
156 2 1 41.926  5.964 40.504 
157 2 1 44.153  4.704 40.137 
158 2 1 46.596  3.731 40.026 
159 2 1  1.934  2.609 40.041 
160 2 1  4.150  1.402 40.248 
161 2 1  6.396 46.852 40.022 
162 2 1  8.719 45.647 39.859 
163 2 1 11.055 46.381 39.381 
164 2 1 12.419 46.311 41.380 
165 2 1 13.606 46.784 43.304 
166 2 1 15.055  1.804 44.507 
167 2 1 14.357  4.048 45.614 
168 2 1 13.023  5.711 46.515 
169 2 1 10.853  6.879 46.999 
170 2 1  8.708  8.062 47.557 
171 2 1  6.542  9.523 47.918 
172 2 1  4.435 11.105 48.103 
173 2 1  2.522 12.654 48.709 
174 2 1  0.651 14.069 49.581 
175 2 1 45.084 14.026 48.866 
176 2 1 42.984 13.247 48.181 
177 2 1 41.343 11.675 47.462 
178 2 1 42.179  9.372 46.325 
179 2 1 43.525  7.352 45.496 
180 2 1 45.251  5.576 44.974 
181 2 1 47.216  3.956 44.626 
182 2 1  2.401  2.509 44.482 
183 2 1  4.483  0.910 44.361 
184 2 1  6.506 46.006 44.315 
185 2 1  8.710 44.830 44.397 
186 2 1 10.747 44.278 45.221 
187 2 1 12.458 44.263 47.311 
188 2 1 13.440 46.399 48.449 
189 2 1 13.698 46.831 50.947 
190 2 1 13.693 47.097  0.696 
191 2 1 13.196 47.040  3.293 
192 2 1 12.638 46.723  5.699 
193 2 1 11.952 46.574  8.174 
194 2 1 10.913 46.443 10.544 
195 2 1 11.067 46.448 12.892 
196 2 1 12.618 46.302 15.057 
197 2 1 14.008 45.677 17.119 
198 2 1 15.459 44.743 19.055 
199 2 1 16.925 44.078 21.084 
200 2 1 17.262 44.032 23.367 
201 2 1 16.671 46.182 24.756 
202 2 1 15.584 46.057 27.056 
203 2 1 12.977 46.079 27.319 
204 2 1 10.926 45.808 28.909 
205 2 1  9.423 45.529 30.926 
206 2 1  8.147 44.975 33.067 
207 3 1  5.009  3.042 32.991 
208 3 1  3.964  4.884 31.516 
209 3 1  2.946  6.748 30.103 
210 3 1  1.864  8.356 28.427 
211 3 1 47.738 10.126 26.895 
212 3 1 46.705 12.127 25.549 
213 3 1 45.336 13.746 24.088 
214 3 1 43.906 15.396 22.771 
215 3 1 42.353 17.216 21.735 
216 3 1 40.364 17.905 20.856 
217 3 1 38.130 18.001 19.711 
218 3 1 37.530 17.079 17.359 
219 3 1 37.805 16.226 15.188 
220 3 1 38.900 15.968 12.981 
221 3 1 38.593 14.029 11.319 
222 3 1 38.107 12.037  9.789 
223 3 1 36.933 10.127  8.467 
224 3 1 36.103  8.095  7.243 
225 3 1 35.514  5.967  6.016 
226 3 1 34.649  3.928  4.697 
227 3 1 33.772  1.863  3.291 
228 3 1 32.812 46.518  1.959 
229 3 1 31.912 44.581  0.442 
230 3 1 31.331 42.551 -1.071 
231 3 1 30.674 40.511 -2.408 
232 3 1 30.810 38.355 49.682 
233 3 1 32.121 36.091 49.518 
234 3 1 32.451 33.903 50.071 
235 3 1 33.990 33.380 -1.008 
236 3 1 36.115 33.177  0.270 
237 3 1 37.019 35.474  0.714 
238 3 1 37.995 37.718  1.341 
239 3 1 39.235 39.663  2.403 
240 3 1 41.232 41.041  1.563 
241 3 1 41.834 43.403  2.411 
242 3 1 42.878 45.669  3.159 
243 3 1 43.962 47.960  3.921 
244 3 1 44.487  3.311  5.223 
245 3 1 45.087  5.238  6.853 
246 3 1 45.784  7.222  8.216 
247 3 1 46.631  9.377  9.157 
248 3 1 47.566 11.588  9.909 
249 3 1 48.369 13.886 10.651 
250 3 1  1.277 15.477 12.263 
251 3 1 47.679 16.738 14.283 
252 3 1 46.446 18.072 15.886 
253 3 1 44.136 17.244 16.858 
254 3 1 42.277 17.787 15.243 
255 3 1 41.032 19.997 15.080 
256 3 1 40.002 22.319 14.700 
257 3 1 38.257 23.770 15.069 
258 3 1 36.255 24.449 16.444 
259 3 1 36.247 23.058 18.427 
260 3 1 36.830 22.031 20.704 
261 3 1 37.083 21.074 23.131 
262 3 1 37.437 19.978 25.406 
263 3 1 37.749 18.828 27.623 
264 3 1 38.101 17.632 29.828 
265 3 1 38.962 16.355 31.932 
266 3 1 40.105 15.088 33.895 
267 3 1 42.475 14.286 34.061 
268 3 1 44.926 13.378 34.263 
269 3 1 46.101 11.710 35.826 
270 3 1 47.844  9.888 36.497 
271 3 1  2.699  8.013 36.490 
272 3 1  4.805  6.564 36.767 
273 3 1  7.049  5.427 37.122 
274 3 1  9.444  4.525 37.313 
275 3 1 11.596  4.345 38.370 
276 3 1 13.276  3.758 39.955 
277 3 1 15.292  4.983 39.807 
278 3 1 16.457  7.221 39.416 
279 3 1 17.445  9.256 39.822 
280 3 1 18.314 11.281 41.061 
281 3 1 19.121 13.483 42.201 
282 3 1 19.762 15.778 43.245 
283 3 1 20.607 17.859 44.685 
284 3 1 21.157 20.112 45.916 
285 4 1  3.683 12.143 40.545 
286 4 1  1.426 13.230 39.798 
287 4 1 46.150 14.386 39.116 
288 4 1 43.608 15.091 38.656 
289 4 1 41.115 15.938 38.776 
290 4 1 39.047 14.831 40.011 
291 4 1 38.204 14.202 42.131 
292 4 1 37.709 13.343 44.289 
293 4 1 36.388 11.854 45.868 
294 4 1 36.199  9.897 47.213 
295 4 1 36.270  7.545 48.346 
296 4 1 35.325  5.909 49.889 
297 4 1 34.222  3.852 49.471 
298 4 1 33.664  1.279 49.659 
299 4 1 35.039 45.855 49.270 
300 4 1 34.153 43.954 47.769 
301 4 1 32.741 42.375 46.541 
302 4 1 30.949 40.757 45.603 
303 4 1 28.436 40.828 46.122 
304 4 1 26.613 41.722 47.110 
305 4 1 25.296 43.109 48.840 
306 4 1 23.688 44.674 49.334 
307 4 1 21.686 46.320 48.949 
308 4 1 19.959 48.239 48.637 
309 4 1 18.329  3.225 48.936 
310 4 1 16.006  4.116 49.784 
311 4 1 14.753  5.530 51.083 
312 4 1 13.323  7.077 -0.832 
313 4 1 10.892  8.030 -0.613 
314 4 1  9.337  9.723 -0.677 
315 4 1  8.634 12.090 -1.421 
316 4 1  7.581 14.292 -2.089 
317 4 1  7.270 14.835 48.388 
318 4 1  6.021 15.114 46.199 
319 4 1  4.121 15.716 44.647 
320 4 1  1.792 14.595 44.388 
321 4 1 47.124 12.873 44.672 
322 4 1 46.387 10.492 45.514 
323 4 1  1.258  8.638 46.018 
324 4 1  3.097  6.866 46.220 
325 4 1  4.920  5.114 46.549 
326 4 1  6.786  3.482 46.494 
327 4 1  8.987  2.350 45.887 
328 4 1  9.644  2.865 43.666 
329 4 1  8.600  4.354 42.337 
330 4 1  6.486  5.716 41.801 
331 4 1  4.163  6.892 41.676 
332 4 1  1.644  7.618 41.577 
333 4 1 46.247  8.526 41.157 
334 4 1 43.995  9.622 40.503 
335 4 1 42.807 11.567 41.854 
336 4 1 42.583 13.728 42.703 
337 4 1 43.582 15.917 43.349 
338 4 1 44.265 17.759 44.829 
339 4 1 44.995 18.588 46.821 
340 4 1 47.348 18.152 47.831 
341 4 1  2.644 17.597 49.150 
342 4 1  4.280 18.107 50.715 
343 4 1  6.064 19.364 -1.133 
344 4 1  8.447 20.338 -1.261 
345 4 1 10.719 21.615 -1.403 
346 4 1 13.100 22.700 -1.841 
347 4 1 15.560 23.337 -2.527 
348 4 1 17.928 23.315 49.337 
349 4 1 18.860 25.435 48.154 
350 4 1 19.398 25.692 45.597 
351 4 1 19.963 25.361 43.397 
352 4 1 20.507 23.966 41.491 
353 4 1 21.613 22.697 39.661 
354 4 1 21.655 21.693 37.548 
355 4 1 21.004 21.197 35.140 
356 4 1 18.632 21.443 34.183 
357 4 1 16.375 21.814 32.863 
358 4 1 14.997 22.707 31.065 
359 4 1 14.666 24.354 29.150 
360 4 1 13.342 25.602 27.685 
361 4 1 11.591 27.173 27.276 
362 4 1 10.117 29.288 27.609 
363 5 1 39.002 18.195 44.083 
364 5 1 39.863 20.048 42.447 
365 5 1 41.265 21.464 41.117 
366 5 1 43.773 21.373 41.812 
367 5 1 46.097 21.005 42.684 
368 5 1 48.476 20.457 43.528 
369 5 1  4.000 20.161 44.465 
370 5 1  6.292 19.927 45.527 
371 5 1  8.469 20.030 46.802 
372 5 1 10.146 21.905 47.132 
373 5 1 12.379 22.736 46.015 
374 5 1 14.599 23.455 44.794 
375 5 1 16.481 22.864 43.553 
376 5 1 17.470 21.078 41.942 
377 5 1 18.483 19.493 40.319 
378 5 1 19.199 17.551 38.838 
379 5 1 18.945 15.576 37.224 
380 5 1 18.554 13.702 35.553 
381 5 1 18.096 11.892 33.829 
382 5 1 15.745 11.267 33.037 
383 5 1 13.454 10.585 32.124 
384 5 1 13.370  8.673 30.364 
385 5 1 11.088  8.421 29.588 
386 5 1  8.700  8.777 28.712 
387 5 1  6.309  8.758 27.772 
388 5 1  5.777 10.583 26.481 
389 5 1  5.469 12.012 24.630 
390 5 1  5.867 11.543 21.995 
391 5 1  6.962 11.200 19.972 
392 5 1  8.036  8.903 19.685 
393 5 1 10.436  8.340 19.935 
394 5 1 12.892  7.821 20.185 
395 5 1 15.416  7.326 20.542 
396 5 1 17.811  6.738 21.423 
397 5 1 20.127  6.098 22.368 
398 5 1 22.401  5.261 23.149 
399 5 1 24.554  4.402 24.204 
400 5 1 25.822  2.278 23.787 
401 5 1 27.043 46.759 23.384 
402 5 1 28.268 44.762 22.470 
403 5 1 30.678 43.915 22.799 
404 5 1 31.589 41.699 23.945 
405 5 1 32.401 39.756 22.556 
406 5 1 33.284 37.887 20.998 
407 5 1 33.665 36.869 18.873 
408 5 1 33.334 36.584 16.280 
409 5 1 32.595 38.525 15.182 
410 5 1 32.643 41.158 14.826 
411 5 1 32.439 43.631 14.379 
412 5 1 32.345 46.091 13.536 
413 5 1 34.076 47.851 14.190 
414 5 1 35.414  2.275 15.708 
415 5 1 36.110  3.422 17.850 
416 5 1 36.034  2.374 20.248 
417 5 1 37.344  3.034 22.334 
418 5 1 38.302  3.746 24.602 
419 5 1 39.271  5.199 26.060 
420 5 1 38.340  7.090 27.436 
421 5 1 36.454  8.159 28.100 
422 5 1 33.927  8.936 28.046 
423 5 1 31.681 10.038 28.278 
424 5 1 29.383 11.040 28.722 
425 5 1 27.109 12.153 29.370 
426 5 1 24.995 13.173 30.408 
427 5 1 23.400 14.590 31.763 
428 5 1 22.030 16.214 33.300 
429 5 1 20.192 17.677 32.329 
430 5 1 18.168 18.397 30.935 
431 5 1 15.975 17.273 30.809 
432 5 1 14.143 18.002 29.363 
433 5 1 13.216 19.047 27.146 
434 5 1 13.139 17.819 24.881 
435 5 1 12.686 16.790 22.558 
436 5 1 14.620 16.734 21.220 
437 5 1 17.072 16.204 20.713 
438 5 1 19.567 15.873 20.411 
439 5 1 21.947 16.230 20.745 
440 5 1 24.030 17.669 20.894 
441 6 1 13.149  4.273 28.156 
442 6 1 14.744  3.853 29.953 
443 6 1 16.155  2.394 31.530 
444 6 1 15.954 46.512 31.544 
445 6 1 15.579 43.959 31.103 
446 6 1 14.815 41.642 30.405 
447 6 1 13.916 39.290 29.902 
448 6 1 12.963 37.724 28.386 
449 6 1 11.953 36.516 26.388 
450 6 1 11.424 34.418 25.448 
451 6 1 13.190 32.498 25.215 
452 6 1 14.927 30.678 24.677 
453 6 1 16.969 30.163 26.085 
454 6 1 18.417 28.117 25.756 
455 6 1 20.403 26.412 25.875 
456 6 1 21.986 25.123 24.951 
457 6 1 23.239 23.661 23.915 
458 6 1 24.954 22.147 24.140 
459 6 1 26.271 22.049 26.422 
460 6 1 27.963 22.192 28.330 
461 6 1 29.624 22.779 30.184 
462 6 1 31.419 23.278 31.931 
463 6 1 33.397 24.107 33.441 
464 6 1 35.468 24.167 34.816 
465 6 1 37.659 23.741 35.920 
466 6 1 40.071 23.470 36.772 
467 6 1 42.667 23.703 37.500 
468 6 1 45.003 24.243 38.463 
469 6 1 47.279 24.482 39.694 
470 6 1  2.742 24.519 40.789 
471 6 1  5.046 24.190 41.699 
472 6 1  7.526 23.662 42.049 
473 6 1 10.068 22.829 41.878 
474 6 1 10.868 20.431 41.553 
475 6 1 13.267 19.247 41.595 
476 6 1 13.881 16.968 40.729 
477 6 1 14.616 14.614 40.061 
478 6 1 14.479 12.471 39.140 
479 6 1 13.261 10.614 37.795 
480 6 1 11.846 10.974 35.597 
481 6 1 10.013 11.590 33.807 
482 6 1  8.434 12.366 32.076 
483 6 1  6.692 13.313 30.351 
484 6 1  5.231 14.330 28.486 
485 6 1  3.715 15.841 26.957 
486 6 1  2.343 17.179 25.349 
487 6 1  0.515 18.245 24.042 
488 6 1 46.524 19.671 22.395 
489 6 1 47.391 19.264 19.914 
490 6 1  2.943 18.965 19.229 
491 6 1  4.238 18.618 17.025 
492 6 1  5.420 18.414 14.699 
493 6 1  7.776 17.674 14.060 
494 6 1  9.620 16.297 13.405 
495 6 1 11.236 14.425 12.884 
496 6 1 13.204 12.806 12.532 
497 6 1 15.125 11.170 12.163 
498 6 1 16.816  9.348 12.306 
499 6 1 18.027  7.078 12.784 
500 6 1 19.514  5.362 12.369 
501 6 1 21.652  4.363 11.114 
502 6 1 23.531  3.311  9.494 
503 6 1 25.576  2.310  9.156 
504 6 1 26.779  4.223  9.821 
505 6 1 27.163  6.780 10.171 
506 6 1 27.622  9.385 10.055 
507 6 1 26.121 10.885  8.909 
508 6 1 24.744 11.741  6.821 
509 6 1 23.028 12.158  5.001 
510 6 1 23.724 11.045  2.988 
511 6 1 22.590  8.786  2.248 
512 6 1 21.585  6.755  1.096 
513 6 1 20.292  4.772  0.765 
514 6 1 19.056  2.671  1.471 
515 6 1 18.131 47.090  2.340 
516 6 1 17.346 44.740  2.955 
517 6 1 16.473 43.747  5.125 
518 6 1 15.757 42.901  7.407 
519 7 1 15.231 20.101 36.561 
520 7 1 15.729 17.634 35.853 
521 7 1 13.741 16.401 35.490 
522 7 1 12.937 15.506 33.152 
523 7 1 11.756 14.963 30.836 
524 7 1 10.559 14.420 28.642 
525 7 1  9.920 13.010 26.797 
526 7 1 10.546 13.050 24.337 
527 7 1 11.355 12.580 21.939 
528 7 1 13.887 12.173 21.367 
529 7 1 16.333 11.694 21.459 
530 7 1 18.666 10.996 22.226 
531 7 1 21.056 10.453 22.716 
532 7 1 23.515  9.998 22.901 
533 7 1 25.825  9.322 23.716 
534 7 1 28.048  8.696 24.751 
535 7 1 28.825  6.715 26.249 
536 7 1 29.196  5.786 28.409 
537 7 1 28.773  5.946 31.000 
538 7 1 28.778  5.615 33.536 
539 7 1 29.250  5.145 35.922 
540 7 1 29.554  4.605 38.374 
541 7 1 29.316  3.359 40.268 
542 7 1 29.313  1.743 41.897 
543 7 1 30.482 46.078 41.482 
544 7 1 31.631 43.760 41.229 
545 7 1 31.917 41.177 41.158 
546 7 1 30.898 39.274 41.518 
547 7 1 28.883 37.797 41.986 
548 7 1 26.754 36.331 42.185 
549 7 1 24.720 34.876 42.465 
550 7 1 22.868 33.204 42.831 
551 7 1 20.968 32.064 42.426 
552 7 1 18.468 31.967 41.547 
553 7 1 15.930 31.616 40.991 
554 7 1 15.251 32.588 38.980 
555 7 1 15.415 30.718 37.139 
556 7 1 15.502 28.939 35.241 
557 7 1 14.721 27.008 34.510 
558 7 1 13.290 24.885 34.461 
559 7 1 10.783 24.504 33.672 
560 7 1  8.319 24.208 32.891 
561 7 1  5.790 24.406 32.312 
562 7 1  3.160 24.668 31.979 
563 7 1  1.326 25.679 31.046 
564 7 1 47.353 27.467 29.936 
565 7 1 47.008 29.646 28.785 
566 7 1 46.355 31.431 27.040 
567 7 1 45.509 33.342 25.430 
568 7 1 44.670 33.385 22.872 
569 7 1 43.810 35.490 21.532 
570 7 1 42.255 36.987 20.375 
571 7 1 40.024 35.963 19.381 
572 7 1 38.596 34.797 17.992 
573 7 1 37.368 33.376 16.612 
574 7 1 35.604 31.551 16.266 
575 7 1 33.856 29.826 15.735 
576 7 1 31.886 28.520 14.676 
577 7 1 30.809 27.422 12.911 
578 7 1 30.298 28.883 10.862 
579 7 1 29.544 30.247  8.921 
580 7 1 28.510 31.285  6.786 
581 7 1 27.767 32.409  4.611 
582 7 1 26.834 33.997  3.479 
583 7 1 26.312 36.577  3.399 
584 7 1 24.650 37.416  5.075 
585 7 1 22.537 37.238  6.461 
586 7 1 21.963 35.678  8.391 
587 7 1 21.230 34.095 10.154 
588 7 1 21.553 34.524 12.488 
589 7 1 22.943 34.839 14.627 
590 7 1 24.347 35.314 16.695 
591 7 1 26.120 35.550 18.636 
592 7 1 27.880 35.714 20.537 
593 7 1 29.553 35.446 22.567 
594 7 1 30.420 35.693 24.858 
595 7 1 30.598 36.173 27.209 
596 7 1 30.492 35.047 29.505 
597 8 1 15.259 19.129 46.676 
598 8 1 15.922 18.050 44.574 
599 8 1 15.140 15.579 44.401 
600 8 1 14.546 13.057 44.159 
601 8 1 13.943 10.671 43.323 
602 8 1 12.638  8.740 42.624 
603 8 1 11.063  7.692 41.326 
604 8 1  9.761  9.120 39.813 
605 8 1  8.265 10.267 38.209 
606 8 1  6.385 11.528 36.977 
607 8 1  4.602 13.006 36.000 
608 8 1  2.890 14.730 35.230 
609 8 1  0.987 16.387 34.715 
610 8 1 45.758 17.725 34.140 
611 8 1 43.534 18.795 33.504 
612 8 1 41.458 20.081 32.745 
613 8 1 39.661 21.607 31.720 
614 8 1 37.186 21.348 32.143 
615 8 1 35.296 20.329 31.003 
616 8 1 33.799 18.391 30.337 
617 8 1 32.884 16.230 29.364 
618 8 1 33.920 14.106 29.008 
619 8 1 36.172 13.463 28.794 
620 8 1 37.805 12.461 29.939 
621 8 1 38.633 10.567 31.442 
622 8 1 39.935  8.808 32.098 
623 8 1 41.286  6.804 31.710 
624 8 1 42.460  4.605 31.346 
625 8 1 43.669  2.282 31.325 
626 8 1 44.954 46.747 31.664 
627 8 1 46.753 44.999 32.039 
628 8 1 48.049 42.803 32.381 
629 8 1  3.040 41.641 32.878 
630 8 1  4.500 41.801 31.138 
631 8 1  5.241 41.236 28.763 
632 8 1  5.549 41.244 26.344 
633 8 1  4.928 41.751 23.863 
634 8 1  2.424 42.166 23.242 
635 8 1 46.763 42.223 23.021 
636 8 1 45.983 40.068 23.335 
637 8 1 45.038 38.125 24.499 
638 8 1 43.588 37.855 26.588 
639 8 1 43.505 35.914 28.330 
640 8 1 42.216 36.103 30.567 
641 8 1 41.188 36.551 32.893 
642 8 1 40.413 37.205 35.204 
643 8 1 39.330 37.109 37.332 
644 8 1 38.065 36.104 39.239 
645 8 1 36.998 34.714 41.283 
646 8 1 35.960 33.466 43.331 
647 8 1 34.415 32.066 44.747 
648 8 1 32.919 30.543 46.086 
649 8 1 31.268 28.989 47.361 
650 8 1 31.524 27.206 49.266 
651 8 1 32.262 25.369 50.781 
652 8 1 30.593 24.212 -0.397 
653 8 1 28.551 23.217  0.833 
654 8 1 26.539 22.029  1.987 
655 8 1 24.541 20.979  0.680 
656 8 1 22.572 20.112 -0.525 
657 8 1 20.210 19.548 -1.470 
658 8 1 17.987 19.476 -0.142 
659 8 1 16.228 20.292  1.186 
660 8 1 15.412 21.686  2.862 
661 8 1 17.331 22.597  4.326 
662 8 1 19.204 23.015  6.039 
663 8 1 21.028 23.711  7.714 
664 8 1 22.963 25.111  8.750 
665 8 1 24.808 26.689  9.616 
666 8 1 25.983 27.697 11.693 
667 8 1 26.777 28.208 13.954 
668 8 1 27.501 28.861 16.315 
669 8 1 28.423 29.328 18.712 
670 8 1 29.493 29.728 20.998 
671 8 1 30.737 30.146 23.154 
672 8 1 31.779 30.777 25.445 
673 8 1 32.878 31.362 27.719 
674 8 1 34.198 31.792 29.899 
675 9 1  8.109 13.428  2.878 
676 9 1  8.270 10.890  3.237 
677 9 1  8.751  8.432  3.783 
678 9 1  9.068  6.024  4.537 
679 9 1 10.005  4.570  6.106 
680 9 1 11.667  4.010  8.016 
681 9 1 13.339  3.282  9.679 
682 9 1 15.043  2.278 11.280 
683 9 1 16.923  1.854 13.013 
684 9 1 18.856  1.566 14.727 
685 9 1 21.128  1.488 15.375 
686 9 1 23.640  1.376 14.775 
687 9 1 24.822  3.329 14.643 
688 9 1 25.204  5.557 15.132 
689 9 1 24.687  7.815 14.217 
690 9 1 24.116 10.175 13.418 
691 9 1 24.379 12.597 13.129 
692 9 1 24.318 14.109 15.223 
693 9 1 24.698 14.292 17.537 
694 9 1 25.486 13.582 19.827 
695 9 1 27.560 12.355 20.656 
696 9 1 29.506 10.993 21.461 
697 9 1 31.353  9.463 22.007 
698 9 1 33.018  7.726 23.027 
699 9 1 34.455  6.008 24.337 
700 9 1 33.839  4.430 26.324 
701 9 1 33.170  4.042 28.526 
702 9 1 32.802  4.660 31.058 
703 9 1 33.495  6.876 32.125 
704 9 1 34.068  8.969 33.581 
705 9 1 34.752 11.016 34.845 
706 9 1 36.515 12.475 35.518 
707 9 1 38.525 11.608 36.869 
708 9 1 40.309 10.258 37.840 
709 9 1 42.235  9.165 36.704 
710 9 1 42.815  6.719 36.361 
711 9 1 43.494  4.298 35.946 
712 9 1 43.934  1.900 36.167 
713 9 1 44.143 46.115 36.726 
714 9 1 44.163 43.656 37.418 
715 9 1 44.149 42.961 39.586 
716 9 1 44.156 42.521 41.930 
717 9 1 43.970 41.637 44.059 
718 9 1 43.034 40.443 46.075 
719 9 1 42.179 39.213 48.165 
720 9 1 42.146 38.146 50.397 
721 9 1 41.695 35.654 50.914 
722 9 1 41.302 33.270 -1.166 
723 9 1 40.917 30.727 -0.624 
724 9 1 40.702 28.122 -0.529 
725 9 1 40.639 25.576 -0.507 
726 9 1 39.123 23.838 -0.209 
727 9 1 36.847 22.600 -0.044 
728 9 1 34.712 21.178  0.283 
729 9 1 32.590 19.835  0.050 
730 9 1 30.301 18.735 -0.405 
731 9 1 28.100 17.758 -1.176 
732 9 1 25.906 16.975 50.594 
733 9 1 23.602 16.258 49.778 
734 9 1 21.436 15.294 48.971 
735 9 1 19.298 14.367 47.963 
736 9 1 17.927 12.669 47.507 
737 9 1 17.454 10.443 47.003 
738 9 1 17.807  8.264 45.451 
739 9 1 18.216  6.196 43.940 
740 9 1 18.498  3.864 42.741 
741 9 1 20.247  2.087 43.625 
742 9 1 21.950 47.026 44.456 
743 9 1 23.623 45.127 45.111 
744 9 1 26.124 45.477 45.154 
745 9 1 28.250 46.583 46.087 
746 9 1 30.047 45.601 47.634 
747 9 1 29.289 45.838 49.833 
748 9 1 29.115  1.483 50.626 
749 9 1 29.594  3.687 -0.949 
750 9 1 31.854  4.316  0.143 
751 9 1 32.580  6.405  1.437 
752 9 1 33.247  8.476  2.760 
753 10 1  6.776  1.427  2.130 
754 10 1  5.212 46.369  1.692 
755 10 1  4.719 44.259  0.395 
756 10 1  4.640 41.894 -0.771 
757 10 1  4.695 39.644 -1.941 
758 10 1  4.483 37.109 50.311 
759 10 1  3.959 34.648 50.086 
760 10 1  3.294 32.219 49.874 
761 10 1  2.800 29.631 49.977 
762 10 1  2.015 27.303 49.629 
763 10 1 46.292 27.302 49.130 
764 10 1 43.771 27.517 48.910 
765 10 1 41.875 28.271 47.963 
766 10 1 40.171 29.238 46.387 
767 10 1 40.960 31.325 45.706 
768 10 1 41.642 33.811 45.876 
769 10 1 41.096 35.892 44.937 
770 10 1 41.043 37.213 42.918 
771 10 1 40.960 38.865 41.361 
772 10 1 39.012 40.158 41.105 
773 10 1 37.016 41.054 40.170 
774 10 1 35.522 42.466 38.464 
775 10 1 33.888 43.745 36.911 
776 10 1 34.372 45.302 34.812 
777 10 1 34.085 47.834 34.684 
778 10 1 33.043  2.716 36.088 
779 10 1 34.259  2.147 37.973 
780 10 1 34.702 47.156 39.905 
781 10 1 35.615 46.269 41.891 
782 10 1 36.927 46.552 44.089 
783 10 1 38.017 47.081 46.407 
784 10 1 38.905  2.765 46.799 
785 10 1 39.126  5.004 46.135 
786 10 1 38.749  7.102 44.671 
787 10 1 38.660  8.826 42.715 
788 10 1 36.625 10.134 41.657 
789 10 1 34.722 11.458 40.369 
790 10 1 33.178 13.078 39.129 
791 10 1 31.866 14.953 38.838 
792 10 1 31.344 17.405 39.560 
793 10 1 33.096 19.278 39.976 
794 10 1 34.669 21.283 40.386 
795 10 1 36.635 22.859 40.940 
796 10 1 38.694 24.595 41.051 
797 10 1 40.155 26.757 40.903 
798 10 1 42.340 26.392 41.893 
799 10 1 44.487 26.308 42.778 
800 10 1 46.692 27.263 43.550 
801 10 1  2.125 27.906 44.515 
802 10 1  2.825 30.312 44.982 
803 10 1  3.185 32.737 45.193 
804 10 1  2.956 34.729 44.214 
805 10 1  2.721 36.356 42.278 
806 10 1  2.662 38.103 40.342 
807 10 1  2.646 40.195 38.776 
808 10 1  2.424 42.533 37.795 
809 10 1  2.065 44.850 36.623 
810 10 1  1.738 47.180 35.664 
811 10 1  1.248  2.832 34.948 
812 10 1 47.308  5.091 33.931 
813 10 1 46.677  7.398 33.159 
814 10 1 46.099  9.766 32.169 
815 10 1 44.445 10.520 30.425 
816 10 1 42.751 11.650 28.779 
817 10 1 41.050 13.023 27.369 
818 10 1 41.278 15.505 26.772 
819 10 1 41.513 17.988 26.219 
820 10 1 41.937 20.464 25.479 
821 10 1 41.708 21.453 23.092 
822 10 1 41.540 22.517 20.680 
823 10 1 43.300 22.414 18.826 
824 10 1 44.919 22.247 16.807 
825 10 1 44.684 23.338 14.470 
826 10 1 44.470 24.429 12.284 
827 10 1 44.601 27.001 11.765 
828 10 1 44.897 29.557 11.504 
829 10 1 45.237 32.075 11.163 
830 10 1 45.156 34.544 10.517 
831 11 1 20.688  8.835 26.900 
832 11 1 23.195  8.756 27.415 
833 11 1 25.201  7.907 28.455 
834 11 1 24.516  5.781 28.865 
835 11 1 23.852  3.344 28.399 
836 11 1 23.072  0.894 28.109 
837 11 1 21.501 45.515 28.295 
838 11 1 19.967 43.458 27.814 
839 11 1 18.303 41.616 27.241 
840 11 1 16.832 39.611 26.512 
841 11 1 15.034 39.361 24.708 
842 11 1 13.589 38.877 22.603 
843 11 1 12.471 36.765 21.456 
844 11 1 11.070 36.799 19.339 
845 11 1  9.909 36.606 17.086 
846 11 1  8.861 36.420 14.843 
847 11 1  7.765 36.348 12.453 
848 11 1  6.532 36.809 10.124 
849 11 1  5.377 37.978  8.047 
850 11 1  3.200 37.141  6.839 
851 11 1  0.887 36.372  6.279 
852 11 1 46.181 34.760  5.800 
853 11 1 45.786 32.246  6.158 
854 11 1 45.459 29.687  6.474 
855 11 1 45.329 27.122  6.690 
856 11 1 44.843 24.618  6.541 
857 11 1 43.894 22.255  6.644 
858 11 1 42.211 20.861  7.244 
859 11 1 41.381 21.272  9.744 
860 11 1 40.854 23.416 10.031 
861 11 1 40.726 25.793  9.340 
862 11 1 40.806 28.280  8.643 
863 11 1 40.890 30.807  8.080 
864 11 1 41.215 33.478  7.749 
865 11 1 40.968 36.072  7.590 
866 11 1 39.399 36.942  6.145 
867 11 1 37.517 38.494  6.844 
868 11 1 35.492 39.460  8.190 
869 11 1 33.396 40.464  9.290 
870 11 1 31.177 41.362 10.202 
871 11 1 28.971 42.187 11.250 
872 11 1 26.843 43.184 12.302 
873 11 1 27.020 45.479 12.298 
874 11 1 27.945 47.712 13.071 
875 11 1 29.051  3.306 13.571 
876 11 1 29.720  5.717 13.700 
877 11 1 30.080  8.257 14.014 
878 11 1 29.644  9.252 16.425 
879 11 1 29.186 11.469 16.207 
880 11 1 28.896 13.547 15.190 
881 11 1 29.883 13.354 12.823 
882 11 1 30.744 13.126 10.371 
883 11 1 30.445 13.407  8.044 
884 11 1 29.478 12.787  6.056 
885 11 1 28.499 11.187  4.300 
886 11 1 27.712  9.553  2.530 
887 11 1 27.045  7.978  0.681 
888 11 1 26.077  6.242 -1.015 
889 11 1 24.996  4.663 50.022 
890 11 1 24.794  2.894 48.509 
891 11 1 24.929  3.440 46.025 
892 11 1 25.326  4.484 43.744 
893 11 1 27.397  5.980 43.271 
894 11 1 29.340  7.701 42.580 
895 11 1 30.835  9.465 42.907 
896 11 1 31.637 11.916 43.371 
897 11 1 32.660 14.306 43.429 
898 11 1 33.765 16.441 44.035 
899 11 1 34.601 18.666 45.176 
900 11 1 33.297 20.291 46.801 
901 11 1 31.546 21.118 48.170 
902 11 1 29.111 21.588 48.832 
903 11 1 27.513 20.742 47.480 
904 11 1 26.247 18.696 46.529 
905 11 1 24.877 16.465 45.762 
906 11 1 23.620 14.399 45.028 
907 11 1 22.568 12.210 44.194 
908 11 1 22.094 10.176 42.856 
909 12 1 11.164 42.760 23.957 
910 12 1 10.279 41.483 25.681 
911 12 1  9.904 41.037 28.279 
912 12 1  9.544 40.512 30.698 
913 12 1  8.684 40.093 33.025 
914 12 1  7.690 39.360 35.331 
915 12 1  7.030 38.249 37.575 
916 12 1  6.879 36.958 39.809 
917 12 1  7.083 35.483 41.920 
918 12 1  7.350 33.681 43.718 
919 12 1  7.598 31.691 45.363 
920 12 1  7.493 29.872 47.086 
921 12 1  8.620 29.807 49.275 
922 12 1  7.614 29.601 -1.047 
923 12 1  6.366 28.782  1.131 
924 12 1  5.120 28.241  3.342 
925 12 1  3.554 26.634  4.175 
926 12 1  1.927 24.634  4.378 
927 12 1  2.324 22.085  4.166 
928 12 1  1.361 20.085  2.873 
929 12 1 46.956 18.491  1.480 
930 12 1 45.802 17.663 -0.647 
931 12 1 43.444 16.499 -0.747 
932 12 1 41.221 15.224 -1.152 
933 12 1 39.126 13.845 -1.431 
934 12 1 36.806 12.724 -1.839 
935 12 1 34.514 11.644 50.483 
936 12 1 32.345 10.553 49.762 
937 12 1 30.117  9.607 48.886 
938 12 1 28.988  7.776 47.950 
939 12 1 29.090  5.324 47.237 
940 12 1 30.864  4.212 45.629 
941 12 1 32.866  4.004 44.356 
942 12 1 34.022  4.499 42.444 
943 12 1 33.738  6.238 40.615 
944 12 1 33.409  7.866 38.558 
945 12 1 31.261  9.235 37.951 
946 12 1 30.027  9.603 35.647 
947 12 1 30.188 11.851 34.455 
948 12 1 30.127 14.425 33.996 
949 12 1 28.887 16.141 32.452 
950 12 1 28.480 17.454 30.430 
951 12 1 28.318 18.075 27.987 
952 12 1 28.086 18.487 25.364 
953 12 1 28.808 19.496 23.408 
954 12 1 30.581 20.814 22.015 
955 12 1 31.931 22.945 22.689 
956 12 1 33.025 25.152 23.417 
957 12 1 33.829 27.092 24.809 
958 12 1 35.924 28.463 24.489 
959 12 1 37.023 30.157 26.086 
960 12 1 38.275 32.063 27.376 
961 12 1 38.695 34.163 28.237 
962 12 1 37.684 35.786 29.583 
963 12 1 36.622 36.459 31.750 
964 12 1 35.425 37.097 33.951 
965 12 1 34.824 37.772 36.376 
966 12 1 33.631 36.281 38.027 
967 12 1 32.305 35.002 39.738 
968 12 1 31.604 33.124 40.910 
969 12 1 31.312 30.606 41.635 
970 12 1 31.032 28.276 42.800 
971 12 1 29.431 26.366 42.036 
972 12 1 27.970 24.734 40.809 
973 12 1 26.453 23.361 39.214 
974 12 1 26.845 20.803 38.695 
975 12 1 26.805 18.456 37.841 
976 12 1 26.254 16.080 36.909 
977 12 1 25.599 13.674 36.117 
978 12 1 25.056 11.177 35.472 
979 12 1 24.720  8.677 34.840 
980 12 1 24.404  6.121 34.364 
981 12 1 24.980  3.730 33.830 
982 12 1 25.861  1.468 33.444 
983 12 1 25.059 45.927 32.540 
984 12 1 24.224 43.728 31.398 
985 12 1 23.462 41.485 30.212 
986 12 1 22.627 39.379 28.968 