LAMMPS data file generated by aa2cg.

2000 atoms
1 atom types
1975 bonds
1 bond types
1950 angles
1 angle types
1925 dihedrals
1 dihedral types

 0.000 59.593 xlo xhi
 0.000 44.470 ylo yhi
 0.000 44.345 zlo zhi

Masses

1 24.022

Atoms # molecular

1 1 1 -3.373 16.650 39.074 
2 1 1 19.177  9.835 14.746 
3 2 1 26.916 32.950 21.773 
4 2 1 38.952 17.178  4.700 
5 3 1  5.505 12.224 19.675 
6 3 1 21.089 44.113 34.659 
7 4 1 42.305 13.338  7.552 
8 4 1  1.276 45.784 16.053 
9 5 1  0.877 10.466 46.301 
10 5 1  1.237 40.847 33.430 
11 6 1 -3.877  9.895 36.089 
12 6 1 12.189 28.188 13.291 
13 7 1 10.575  3.974 44.588 
14 7 1 21.880 33.786 36.894 
15 8 1 38.026  2.229 18.852 
16 8 1  1.009 17.106 14.156 
17 9 1 47.346 27.688 25.555 
18 9 1 41.709  8.065 40.082 
19 10 1 49.838 21.686 26.267 
20 10 1  8.013 15.093 35.837 
21 11 1 53.291 34.606 36.417 
22 11 1 13.635 43.924  4.860 
23 12 1 29.622 13.370 40.180 
24 12 1 34.818 29.665 15.870 
25 13 1 10.922 25.358 39.756 
26 13 1 -3.302 42.627 28.810 
27 14 1 40.229  8.171 35.891 
28 14 1 31.651 36.897 19.736 
29 15 1 12.122 32.574 39.257 
30 15 1 13.435 32.447  9.284 
31 16 1 22.389 36.234 42.471 
32 16 1 31.086 10.876 43.717 
33 17 1  1.701 27.747 17.379 
34 17 1 19.283 17.658 15.893 
35 18 1 31.004 21.278 12.582 
36 18 1 38.026 16.294 34.345 
37 19 1 22.974  2.649 19.893 
38 19 1 29.518 38.864 44.315 
39 20 1 21.862 12.408 45.180 
40 20 1 35.930  5.867  4.645 
41 21 1 46.500 45.684 29.055 
42 21 1 24.864 43.100 15.444 
43 22 1 47.065 24.781 38.148 
44 22 1  0.645  9.764 19.962 
45 23 1 44.144 16.742 21.984 
46 23 1 14.496 29.029 35.159 
47 24 1 35.521  7.525 17.936 
48 24 1  1.394 17.185  9.826 
49 25 1 41.461 15.945 36.952 
50 25 1 -3.633 44.106 15.266 
51 1 1 -2.045 18.272 40.602 
52 1 1 -0.185 19.561 40.961 
53 1 1  2.343 20.212 40.916 
54 1 1  4.749 21.247 41.226 
55 1 1  6.288 23.093 41.441 
56 1 1  6.911 25.568 41.774 
57 1 1  7.978 27.965 41.713 
58 1 1  6.970 30.301 41.311 
59 1 1  7.474 31.964 39.371 
60 1 1  7.875 33.671 37.549 
61 1 1  8.386 35.497 35.810 
62 1 1  8.200 38.017 36.321 
63 1 1  7.823 40.576 36.863 
64 1 1  7.021 42.993 37.046 
65 1 1  5.925 45.360 37.246 
66 1 1  4.127  2.480 37.031 
67 1 1  2.028 45.772 36.091 
68 1 1 -0.142 44.700 35.222 
69 1 1 -2.319 43.907 34.094 
70 1 1 -4.424 43.187 32.808 
71 1 1 53.837 41.604 31.909 
72 1 1 52.887 39.693 30.932 
73 1 1 52.386 38.000 29.014 
74 1 1 51.726 36.687 26.891 
75 1 1 51.076 35.042 25.039 
76 1 1 52.746 33.798 23.519 
77 1 1 54.208 32.217 22.087 
78 1 1 54.259 31.544 19.567 
79 1 1 -3.501 30.122 18.561 
80 1 1 -3.143 29.656 16.081 
81 1 1 -3.408 29.016 13.558 
82 1 1 -4.069 27.943 11.243 
83 1 1 -5.282 27.038  9.167 
84 1 1 53.904 26.919  6.848 
85 1 1 53.327 27.535  4.745 
86 1 1 52.063 27.522  2.538 
87 1 1 49.788 26.411  1.979 
88 1 1 49.243 24.483 44.640 
89 1 1 48.686 22.325 43.315 
90 1 1 48.476 21.732 40.789 
91 1 1 46.565 20.366 39.621 
92 1 1 44.826 18.751 38.452 
93 1 1 45.355 16.498 38.780 
94 1 1 47.845 15.650 38.348 
95 1 1 50.056 16.506 39.345 
96 1 1 51.956 17.819 39.845 
97 1 1 53.381 19.967 39.901 
98 1 1 53.696 22.215 40.397 
99 1 1 53.262 24.386 41.455 
100 1 1 52.660 26.752 42.290 
101 1 1 53.047 29.048 42.202 
102 1 1 53.296 31.334 42.385 
103 1 1 52.806 33.751 42.072 
104 1 1 53.296 36.061 41.578 
105 1 1 54.235 38.347 42.217 
106 1 1 -4.494 40.587 43.222 
107 1 1 -3.977 42.921 44.191 
108 1 1 -5.131 44.217 46.126 
109 1 1 52.950 45.677  2.723 
110 1 1 50.933  2.784  2.479 
111 1 1 49.376  4.529 47.067 
112 1 1 48.687  6.870  3.634 
113 1 1 49.757  8.244  5.634 
114 1 1 51.784  9.830  5.536 
115 1 1 53.578 11.648  4.939 
116 1 1 -3.805 12.425  4.524 
117 1 1 -1.377 12.974  4.931 
118 1 1  0.824 13.982  5.356 
119 1 1  3.130 15.065  5.745 
120 1 1  5.434 16.103  6.401 
121 1 1  7.716 16.995  6.946 
122 1 1  9.306 17.702  8.925 
123 1 1 11.091 19.000 10.313 
124 1 1 12.342 18.262 12.438 
125 1 1 13.449 17.277 14.470 
126 1 1 14.175 15.450 15.693 
127 1 1 16.158 13.939 15.501 
128 1 1 17.850 11.974 15.308 
129 2 1 26.635 35.466 21.535 
130 2 1 26.437 37.620 22.267 
131 2 1 26.273 39.338 24.127 
132 2 1 27.030 40.804 25.819 
133 2 1 28.929 42.006 27.154 
134 2 1 30.555 43.421 28.476 
135 2 1 32.698 42.619 29.576 
136 2 1 34.995 43.853 28.952 
137 2 1 37.120 44.941 28.104 
138 2 1 38.462 45.413 26.410 
139 2 1 39.700 45.085 24.129 
140 2 1 40.982 46.132 22.535 
141 2 1 42.730  3.246 21.481 
142 2 1 43.111  5.457 20.658 
143 2 1 41.061  6.913 21.424 
144 2 1 39.151  8.209 22.491 
145 2 1 37.600  9.993 21.380 
146 2 1 36.013 11.611 20.203 
147 2 1 34.322 12.975 18.915 
148 2 1 34.722 14.962 17.315 
149 2 1 34.977 16.713 15.330 
150 2 1 35.469 18.682 13.626 
151 2 1 36.484 21.059 12.740 
152 2 1 37.469 23.365 12.251 
153 2 1 38.684 25.579 12.411 
154 2 1 39.402 27.998 12.071 
155 2 1 39.932 30.471 11.720 
156 2 1 40.978 32.536 12.210 
157 2 1 42.533 34.238 13.342 
158 2 1 43.408 34.202 15.798 
159 2 1 44.263 34.524 18.245 
160 2 1 45.276 34.896 20.544 
161 2 1 45.412 34.584 22.837 
162 2 1 44.305 33.774 25.157 
163 2 1 43.262 31.841 25.143 
164 2 1 42.607 29.987 23.976 
165 2 1 43.557 29.377 21.809 
166 2 1 45.149 28.041 20.309 
167 2 1 45.888 26.507 18.424 
168 2 1 46.466 25.343 16.097 
169 2 1 46.204 22.836 15.334 
170 2 1 47.913 20.970 16.094 
171 2 1 49.696 19.924 14.623 
172 2 1 49.474 17.368 13.892 
173 2 1 49.147 14.995 13.141 
174 2 1 48.292 12.708 13.375 
175 2 1 47.132 10.587 14.025 
176 2 1 45.936  8.467 14.798 
177 2 1 45.007  6.154 15.525 
178 2 1 44.034  3.968 16.212 
179 2 1 42.759 46.394 17.125 
180 2 1 41.440 44.509 18.350 
181 2 1 40.178 42.650 19.641 
182 2 1 38.878 40.826 20.918 
183 2 1 37.309 39.096 21.853 
184 2 1 35.738 37.231 22.537 
185 2 1 34.237 35.315 23.515 
186 2 1 32.557 33.642 23.496 
187 2 1 30.575 34.657 24.044 
188 2 1 28.875 35.003 25.937 
189 2 1 26.924 35.687 27.107 
190 2 1 25.242 34.144 26.995 
191 2 1 24.125 32.056 28.090 
192 2 1 23.367 29.926 29.251 
193 2 1 24.860 28.131 29.747 
194 2 1 26.630 26.362 29.268 
195 2 1 28.032 24.724 29.828 
196 2 1 29.574 23.515 31.037 
197 2 1 30.825 21.654 29.628 
198 2 1 33.028 21.398 30.642 
199 2 1 34.739 21.648 32.494 
200 2 1 36.243 22.020 34.570 
201 2 1 38.379 21.987 36.052 
202 2 1 39.665 20.968 37.734 
203 2 1 40.424 18.914 39.168 
204 2 1 39.749 18.565 41.582 
205 2 1 39.480 18.050 44.032 
206 2 1 39.114 17.585 46.560 
207 3 1  5.998  9.653 19.615 
208 3 1  6.709  7.693 18.499 
209 3 1  7.351  6.182 16.526 
210 3 1  7.796  4.213 14.940 
211 3 1  8.591  2.054 14.256 
212 3 1  9.799 44.233 13.930 
213 3 1  8.751 41.937 13.455 
214 3 1 10.285 40.294 12.446 
215 3 1 11.667 38.565 11.561 
216 3 1 12.745 36.334 12.386 
217 3 1 13.751 34.391 13.683 
218 3 1 12.374 33.110 15.537 
219 3 1 14.012 32.019 17.059 
220 3 1 14.798 29.632 17.225 
221 3 1 15.505 27.222 17.494 
222 3 1 15.139 24.841 16.466 
223 3 1 13.771 23.110 15.515 
224 3 1 11.706 21.944 14.683 
225 3 1  9.484 20.743 14.447 
226 3 1  7.444 21.236 12.668 
227 3 1  6.219 21.045 10.664 
228 3 1  4.976 21.162  8.641 
229 3 1  2.762 21.407  7.199 
230 3 1  1.058 20.802  5.640 
231 3 1 -0.888 19.767  4.282 
232 3 1 -2.584 18.828  2.611 
233 3 1 -3.950 18.161 44.864 
234 3 1 -5.680 16.144 44.671 
235 3 1 52.159 14.264 44.195 
236 3 1 51.262 12.233 44.695 
237 3 1 50.341 10.265 45.389 
238 3 1 49.926  8.471 43.556 
239 3 1 49.235  6.440 42.141 
240 3 1 46.854  6.089 41.300 
241 3 1 44.964  5.511 42.859 
242 3 1 44.043  4.957 44.970 
243 3 1 43.703  4.224 47.426 
244 3 1 43.163  3.297  5.463 
245 3 1 45.325  3.147  6.596 
246 3 1 47.755  3.361  6.938 
247 3 1 50.290  3.772  7.138 
248 3 1 52.249 46.635  7.273 
249 3 1 54.248 45.082  7.123 
250 3 1 -4.403 43.097  6.323 
251 3 1 -4.570 40.914  4.791 
252 3 1 52.949 40.225  3.424 
253 3 1 50.741 39.751  2.146 
254 3 1 50.256 40.020 44.025 
255 3 1 49.473 40.578 41.685 
256 3 1 48.708 40.906 39.141 
257 3 1 46.627 39.785 37.864 
258 3 1 45.713 40.132 35.440 
259 3 1 44.963 40.774 33.018 
260 3 1 44.442 41.319 30.424 
261 3 1 42.299 40.901 29.189 
262 3 1 40.108 40.324 27.992 
263 3 1 37.823 40.379 26.762 
264 3 1 35.491 40.197 26.421 
265 3 1 33.161 39.422 26.022 
266 3 1 31.623 39.909 24.326 
267 3 1 30.584 41.812 22.917 
268 3 1 29.310 43.715 21.851 
269 3 1 27.828 45.428 20.588 
270 3 1 27.957  3.399 20.814 
271 3 1 28.099  5.396 21.890 
272 3 1 27.929  6.906 23.905 
273 3 1 28.668  7.938 25.858 
274 3 1 30.400  8.473 27.777 
275 3 1 32.144  9.086 29.633 
276 3 1 32.719  9.741 31.895 
277 3 1 32.303 10.584 34.253 
278 3 1 29.994 11.340 35.179 
279 3 1 27.789 12.010 35.065 
280 3 1 25.992 10.332 34.113 
281 3 1 24.132  8.752 33.101 
282 3 1 22.669  6.744 32.942 
283 3 1 21.795  4.452 33.565 
284 3 1 21.022  2.154 34.283 
285 4 1 43.196 15.734  7.512 
286 4 1 44.201 18.191  7.457 
287 4 1 45.193 20.569  7.341 
288 4 1 46.209 22.862  7.387 
289 4 1 47.220 25.232  7.095 
290 4 1 48.238 27.422  6.289 
291 4 1 49.080 29.906  6.062 
292 4 1 50.365 31.638  5.108 
293 4 1 50.057 31.696  2.512 
294 4 1 49.444 31.113 44.477 
295 4 1 48.124 30.192 42.464 
296 4 1 46.553 29.272 40.491 
297 4 1 44.781 29.464 38.893 
298 4 1 42.966 30.483 37.417 
299 4 1 41.051 31.791 36.211 
300 4 1 39.214 33.305 35.255 
301 4 1 37.063 32.511 34.793 
302 4 1 35.654 30.668 34.342 
303 4 1 34.493 28.295 34.545 
304 4 1 33.430 25.916 34.933 
305 4 1 32.567 23.505 35.546 
306 4 1 31.640 21.245 36.292 
307 4 1 30.996 18.902 37.095 
308 4 1 30.213 16.824 36.664 
309 4 1 31.822 15.423 36.255 
310 4 1 33.771 14.056 36.822 
311 4 1 35.904 12.566 37.184 
312 4 1 37.714 12.888 39.059 
313 4 1 39.374 13.173 40.898 
314 4 1 41.173 14.079 42.216 
315 4 1 43.112 15.710 42.840 
316 4 1 43.634 18.121 43.386 
317 4 1 43.590 20.701 43.708 
318 4 1 42.717 22.327 41.869 
319 4 1 41.885 23.904 39.971 
320 4 1 41.258 25.479 37.970 
321 4 1 40.265 26.836 36.013 
322 4 1 39.421 27.959 33.866 
323 4 1 38.879 27.958 31.635 
324 4 1 37.460 27.153 30.081 
325 4 1 35.171 26.300 29.314 
326 4 1 33.889 25.209 27.797 
327 4 1 32.620 24.407 26.086 
328 4 1 30.467 23.308 25.216 
329 4 1 28.521 23.073 23.940 
330 4 1 26.907 24.170 22.136 
331 4 1 25.224 24.846 20.235 
332 4 1 24.837 27.106 19.670 
333 4 1 24.306 29.302 19.629 
334 4 1 22.987 31.557 19.689 
335 4 1 22.020 33.863 19.713 
336 4 1 21.516 35.961 20.334 
337 4 1 21.331 38.078 21.242 
338 4 1 20.691 40.436 21.590 
339 4 1 20.119 42.873 21.986 
340 4 1 19.788 45.404 22.300 
341 4 1 19.463  3.470 22.902 
342 4 1 18.865  5.949 23.078 
343 4 1 18.343  8.463 23.192 
344 4 1 17.878 10.955 23.148 
345 4 1 17.316 13.474 23.207 
346 4 1 16.537 16.002 23.281 
347 4 1 14.520 17.266 24.393 
348 4 1 12.337 17.913 24.684 
349 4 1 10.053 18.790 23.874 
350 4 1  7.685 19.486 23.230 
351 4 1  5.277 19.178 23.317 
352 4 1  2.982 19.042 23.693 
353 4 1  0.698 19.158 24.324 
354 4 1 -1.624 18.654 25.314 
355 4 1 -2.182 16.445 26.528 
356 4 1 -3.070 14.249 25.567 
357 4 1 -2.722 11.990 24.422 
358 4 1 -2.615  9.629 23.538 
359 4 1 -2.394  7.215 22.545 
360 4 1 -1.758  5.083 21.402 
361 4 1 -0.744  3.391 19.810 
362 4 1  0.018  1.830 17.987 
363 5 1  0.972  9.433 44.168 
364 5 1  0.320  8.251 41.890 
365 5 1 -1.902  7.202 40.947 
366 5 1 -4.056  6.396 39.829 
367 5 1 53.464  5.550 38.696 
368 5 1 51.395  4.854 37.594 
369 5 1 49.502  4.138 36.036 
370 5 1 49.801  3.310 33.575 
371 5 1 50.955  2.866 31.567 
372 5 1 52.198  2.576 29.601 
373 5 1 52.181 44.988 28.085 
374 5 1 52.183 43.057 26.373 
375 5 1 53.008 41.219 25.135 
376 5 1 54.825 39.513 24.328 
377 5 1 -3.456 37.408 23.584 
378 5 1 -2.256 35.136 22.835 
379 5 1 -1.278 33.048 21.637 
380 5 1  0.110 30.846 21.414 
381 5 1  2.533 30.492 21.007 
382 5 1  4.631 31.289 20.533 
383 5 1  6.240 33.209 20.852 
384 5 1  7.811 35.150 21.269 
385 5 1  7.071 37.414 22.146 
386 5 1  6.717 39.767 23.154 
387 5 1  6.363 41.941 24.549 
388 5 1  5.957 43.764 26.225 
389 5 1  5.642 46.065 27.394 
390 5 1  4.903  3.903 28.218 
391 5 1  3.971  6.273 28.715 
392 5 1  2.985  8.556 29.327 
393 5 1  4.331 10.736 29.519 
394 5 1  6.025 12.616 29.585 
395 5 1  6.003 14.578 27.835 
396 5 1  5.400 15.511 25.805 
397 5 1  6.820 14.669 23.839 
398 5 1  8.658 14.491 22.413 
399 5 1 10.913 14.877 21.431 
400 5 1 12.839 13.984 20.466 
401 5 1 14.307 11.950 19.641 
402 5 1 15.699  9.869 19.039 
403 5 1 16.981  7.701 18.602 
404 5 1 17.831  5.299 19.091 
405 5 1 18.686  3.043 18.200 
406 5 1 19.361 45.193 17.375 
407 5 1 20.215 42.778 16.940 
408 5 1 20.961 40.261 16.740 
409 5 1 21.870 37.793 16.478 
410 5 1 23.152 35.594 15.959 
411 5 1 22.518 33.747 14.206 
412 5 1 24.039 32.393 12.679 
413 5 1 25.334 31.315 10.804 
414 5 1 26.416 30.325  8.749 
415 5 1 27.280 29.474  6.350 
416 5 1 28.437 29.912  4.418 
417 5 1 28.051 32.260  3.408 
418 5 1 29.649 33.909  2.320 
419 5 1 31.630 35.112 46.281 
420 5 1 34.103 35.772 46.438 
421 5 1 36.198 36.536 45.680 
422 5 1 38.055 37.307 44.143 
423 5 1 39.687 38.867 43.839 
424 5 1 41.106 39.152 45.912 
425 5 1 42.693 39.805  3.444 
426 5 1 44.472 40.499  5.162 
427 5 1 46.397 40.026  6.438 
428 5 1 48.430 38.460  7.201 
429 5 1 50.543 37.571  5.979 
430 5 1 52.714 36.575  4.970 
431 5 1 -4.654 36.584  4.592 
432 5 1 -2.528 36.602  4.212 
433 5 1 -0.395 35.694  3.073 
434 5 1  1.849 34.854 46.238 
435 5 1  3.790 34.216 44.549 
436 5 1  3.039 33.624 42.311 
437 5 1  2.251 34.271 39.796 
438 5 1  2.128 36.616 38.858 
439 5 1  2.462 39.033 38.113 
440 5 1  1.865 40.137 35.799 
441 6 1 54.000  8.519 35.308 
442 6 1 52.264  8.315 33.332 
443 6 1 50.344  7.616 31.816 
444 6 1 48.421  6.517 30.410 
445 6 1 46.480  5.555 28.935 
446 6 1 44.443  4.843 27.427 
447 6 1 42.417  5.177 26.381 
448 6 1 40.149  5.717 26.281 
449 6 1 37.688  5.738 26.860 
450 6 1 35.116  5.428 27.206 
451 6 1 33.722  4.139 28.937 
452 6 1 32.387  3.091 30.907 
453 6 1 32.120 46.309 32.737 
454 6 1 32.740 45.188 34.923 
455 6 1 33.368 43.937 37.133 
456 6 1 34.018 45.058 38.973 
457 6 1 33.509 45.930 41.313 
458 6 1 31.878  3.368 42.228 
459 6 1 32.711  4.503 44.047 
460 6 1 34.149  6.302 45.072 
461 6 1 35.238  8.364 43.957 
462 6 1 35.958 10.634 43.594 
463 6 1 35.965 13.296 43.652 
464 6 1 35.890 15.190 42.281 
465 6 1 35.264 16.732 40.381 
466 6 1 35.102 18.907 39.701 
467 6 1 35.634 21.491 40.113 
468 6 1 36.189 23.634 39.312 
469 6 1 36.418 25.878 38.768 
470 6 1 36.573 28.322 39.512 
471 6 1 38.028 29.889 40.181 
472 6 1 39.769 28.515 41.471 
473 6 1 41.580 26.880 42.393 
474 6 1 43.706 27.683 43.662 
475 6 1 44.952 26.714 45.666 
476 6 1 45.963 25.113  2.765 
477 6 1 44.368 23.394 47.071 
478 6 1 42.433 21.716  3.399 
479 6 1 40.430 22.203  2.259 
480 6 1 39.315 23.491 44.746 
481 6 1 37.754 24.914 43.776 
482 6 1 35.445 25.046 43.533 
483 6 1 33.240 23.994 42.722 
484 6 1 30.984 22.863 42.056 
485 6 1 28.906 21.768 40.902 
486 6 1 26.749 21.091 39.644 
487 6 1 24.753 19.928 38.296 
488 6 1 25.272 17.644 38.237 
489 6 1 26.022 15.400 37.601 
490 6 1 24.090 14.221 36.312 
491 6 1 22.338 12.511 35.275 
492 6 1 20.604 10.788 34.625 
493 6 1 18.693  9.084 34.060 
494 6 1 16.883  7.301 33.443 
495 6 1 16.607  6.314 31.015 
496 6 1 17.788  4.515 30.130 
497 6 1 19.724  3.301 28.894 
498 6 1 20.823 46.143 27.233 
499 6 1 20.893 43.780 26.761 
500 6 1 20.690 41.229 26.958 
501 6 1 18.467 39.838 27.368 
502 6 1 18.366 37.611 28.688 
503 6 1 18.373 37.198 31.164 
504 6 1 18.247 36.824 33.644 
505 6 1 17.706 34.696 34.983 
506 6 1 17.473 32.595 36.510 
507 6 1 17.698 32.222 39.078 
508 6 1 18.057 31.253 41.516 
509 6 1 16.815 31.211 43.632 
510 6 1 15.457 31.112 45.779 
511 6 1 13.850 31.021  3.482 
512 6 1 12.545 32.223  5.029 
513 6 1 11.107 34.194  5.702 
514 6 1  9.491 35.081  7.186 
515 6 1  7.675 35.224  8.979 
516 6 1  8.484 34.504 11.153 
517 6 1  9.838 32.344 11.346 
518 6 1 11.023 30.089 11.986 
519 7 1  9.896  3.720 46.824 
520 7 1  9.829  2.536  4.715 
521 7 1  9.453 46.033  7.088 
522 7 1  9.222 44.576  9.213 
523 7 1  9.129 42.342  8.546 
524 7 1  9.790 40.120  7.510 
525 7 1 11.834 39.462  6.015 
526 7 1 13.979 39.155  4.704 
527 7 1 16.041 39.760  3.499 
528 7 1 17.537 41.593  2.259 
529 7 1 16.930 43.876 46.524 
530 7 1 16.268 46.384 46.860 
531 7 1 15.139  4.287 46.764 
532 7 1 14.039  6.569 46.781 
533 7 1 12.736  8.762 47.044 
534 7 1 10.559  8.551  3.321 
535 7 1  8.237  7.725  3.089 
536 7 1  5.869  6.921  2.638 
537 7 1  3.630  5.754  2.207 
538 7 1  1.427  4.707 45.929 
539 7 1 -0.843  4.141 44.785 
540 7 1 -3.065  3.735 43.711 
541 7 1 -5.455  3.139 42.946 
542 7 1 51.776  2.708 42.142 
543 7 1 49.517 46.293 41.262 
544 7 1 47.194 45.340 40.390 
545 7 1 46.279 45.524 37.948 
546 7 1 45.611 45.693 35.404 
547 7 1 45.676 46.891 33.348 
548 7 1 43.735  4.082 33.427 
549 7 1 41.946  5.173 32.335 
550 7 1 41.317  7.153 31.236 
551 7 1 43.201  8.467 30.030 
552 7 1 42.739 10.431 28.853 
553 7 1 41.192 11.724 27.278 
554 7 1 39.337 12.976 26.205 
555 7 1 37.384 14.239 25.004 
556 7 1 35.385 15.128 23.680 
557 7 1 33.130 15.718 22.498 
558 7 1 31.193 16.819 21.855 
559 7 1 29.330 18.196 21.515 
560 7 1 27.009 18.970 21.751 
561 7 1 25.140 20.077 23.096 
562 7 1 23.525 21.623 24.399 
563 7 1 22.514 23.692 24.312 
564 7 1 21.938 25.874 23.459 
565 7 1 23.183 28.064 24.022 
566 7 1 24.970 29.477 24.552 
567 7 1 27.181 28.579 23.594 
568 7 1 29.394 28.054 22.496 
569 7 1 30.883 26.730 21.244 
570 7 1 31.314 24.922 19.407 
571 7 1 31.180 22.311 19.844 
572 7 1 30.322 20.504 18.355 
573 7 1 29.909 18.660 16.616 
574 7 1 29.858 16.453 17.244 
575 7 1 28.670 14.461 18.521 
576 7 1 26.246 14.349 19.407 
577 7 1 24.177 14.912 20.272 
578 7 1 22.492 16.364 21.602 
579 7 1 20.917 17.826 23.050 
580 7 1 19.329 19.399 24.211 
581 7 1 17.743 20.827 25.725 
582 7 1 17.339 22.939 25.019 
583 7 1 16.903 25.010 24.240 
584 7 1 16.397 27.435 24.816 
585 7 1 15.951 29.800 25.692 
586 7 1 15.401 32.198 26.310 
587 7 1 14.919 34.587 27.075 
588 7 1 14.085 36.853 27.901 
589 7 1 13.733 39.246 28.962 
590 7 1 14.460 41.423 29.184 
591 7 1 16.354 43.239 29.344 
592 7 1 18.570 42.606 30.799 
593 7 1 20.620 41.310 31.702 
594 7 1 22.158 39.832 32.918 
595 7 1 22.836 38.165 34.559 
596 7 1 22.670 35.992 35.878 
597 8 1 37.087  3.086 21.058 
598 8 1 36.618  4.641 22.587 
599 8 1 34.503  6.092 22.416 
600 8 1 32.511  7.702 22.133 
601 8 1 30.747  9.607 21.402 
602 8 1 28.646 10.458 21.159 
603 8 1 26.135  9.914 21.452 
604 8 1 24.235 10.442 22.596 
605 8 1 22.589 11.782 24.009 
606 8 1 20.730 13.035 25.523 
607 8 1 18.892 14.472 26.821 
608 8 1 16.963 15.936 27.681 
609 8 1 15.277 17.347 29.051 
610 8 1 13.377 17.434 30.178 
611 8 1 13.190 17.106 32.779 
612 8 1 12.975 16.955 35.389 
613 8 1 12.429 16.857 37.973 
614 8 1 12.083 14.651 39.361 
615 8 1 12.295 14.542 41.874 
616 8 1 10.378 14.327 43.611 
617 8 1  9.196 15.646 45.102 
618 8 1  7.667 17.424 45.714 
619 8 1  5.306 18.424 46.045 
620 8 1  2.869 18.758 46.628 
621 8 1  1.198 17.605 45.367 
622 8 1 -0.223 15.614 44.609 
623 8 1 -1.999 13.808 44.069 
624 8 1 -3.260 11.493 43.906 
625 8 1 -4.214  9.598 45.331 
626 8 1 -5.352  7.538 46.381 
627 8 1 53.866  5.624 47.613 
628 8 1 -3.881  4.752  4.431 
629 8 1 -1.888  5.978  5.455 
630 8 1 -0.106  7.409  6.638 
631 8 1  2.448  7.240  6.489 
632 8 1  3.964  9.271  5.855 
633 8 1  5.339 11.050  4.552 
634 8 1  5.445 12.490  2.754 
635 8 1  4.510 13.619 44.946 
636 8 1  3.555 14.636 42.883 
637 8 1  2.953 15.332 40.427 
638 8 1  2.189 16.046 38.018 
639 8 1  0.111 16.289 36.547 
640 8 1  0.623 17.038 34.290 
641 8 1  2.993 16.056 33.659 
642 8 1  4.822 17.240 32.133 
643 8 1  6.569 18.156 30.495 
644 8 1  8.119 18.945 28.664 
645 8 1  9.622 20.474 29.564 
646 8 1 10.142 22.584 30.933 
647 8 1  8.468 24.123 32.273 
648 8 1  6.367 24.866 33.084 
649 8 1  3.891 24.482 33.410 
650 8 1  2.478 22.542 32.456 
651 8 1  0.935 20.774 31.438 
652 8 1 -1.694 20.640 31.741 
653 8 1 -2.980 18.647 30.795 
654 8 1 -3.781 16.424 31.066 
655 8 1 -4.087 14.090 32.192 
656 8 1 -1.958 13.259 32.741 
657 8 1 -0.386 13.749 30.781 
658 8 1  0.830 14.867 29.175 
659 8 1  1.847 17.125 28.633 
660 8 1  2.537 19.510 28.055 
661 8 1  2.718 22.027 27.723 
662 8 1  4.294 23.843 28.729 
663 8 1  6.089 25.268 28.691 
664 8 1  8.134 26.136 27.482 
665 8 1 10.140 27.062 26.116 
666 8 1 12.319 27.779 24.926 
667 8 1 12.616 27.962 22.337 
668 8 1 13.060 26.135 20.903 
669 8 1 12.626 23.966 19.582 
670 8 1 10.385 22.747 18.887 
671 8 1  8.127 21.628 18.613 
672 8 1  5.940 20.388 18.320 
673 8 1  3.546 19.281 18.163 
674 8 1  2.286 18.490 15.994 
675 9 1 48.035 30.088 26.056 
676 9 1 47.884 32.350 27.019 
677 9 1 47.863 34.327 28.358 
678 9 1 48.342 35.937 29.910 
679 9 1 49.187 36.941 32.139 
680 9 1 50.325 38.213 34.169 
681 9 1 51.579 39.345 36.074 
682 9 1 53.156 40.171 37.971 
683 9 1 -3.893 40.187 37.501 
684 9 1 -1.950 41.429 38.773 
685 9 1 -0.031 42.587 39.985 
686 9 1  2.540 42.872 39.594 
687 9 1  4.172 43.191 41.570 
688 9 1  4.881 44.099 43.539 
689 9 1  4.855 45.325 45.825 
690 9 1  5.003 46.517  3.746 
691 9 1  4.216 46.410  6.209 
692 9 1  4.035 45.805  8.541 
693 9 1  4.237 44.611 10.810 
694 9 1  3.882 43.371 13.018 
695 9 1  2.565 41.935 14.363 
696 9 1  0.400 40.688 15.029 
697 9 1 -0.877 39.118 13.534 
698 9 1 -1.515 37.770 11.535 
699 9 1 -1.877 36.434  9.335 
700 9 1  0.147 35.848  7.927 
701 9 1  2.391 36.164  6.838 
702 9 1  4.658 36.396  5.442 
703 9 1  6.752 37.307  4.074 
704 9 1  8.656 38.417  2.661 
705 9 1 10.579 39.006 45.369 
706 9 1 12.620 39.508 43.709 
707 9 1 14.820 40.500 42.822 
708 9 1 14.969 42.626 41.851 
709 9 1 14.655 45.133 42.110 
710 9 1 14.480  3.183 42.323 
711 9 1 14.118  5.724 42.188 
712 9 1 13.452  8.214 41.862 
713 9 1 12.218 10.101 41.241 
714 9 1 10.166 10.228 42.906 
715 9 1  8.399  8.341 42.992 
716 9 1  7.016  6.306 42.750 
717 9 1  5.469  4.288 42.562 
718 9 1  3.241  3.162 41.842 
719 9 1  0.969  2.515 40.913 
720 9 1 -1.243 46.470 39.846 
721 9 1 -3.551 45.747 38.947 
722 9 1 -5.869 45.036 38.030 
723 9 1 51.442 44.355 37.186 
724 9 1 49.988 43.853 35.577 
725 9 1 49.610 43.103 33.030 
726 9 1 49.402 42.005 30.596 
727 9 1 48.817 41.162 28.159 
728 9 1 48.222 39.772 26.379 
729 9 1 46.601 38.116 25.641 
730 9 1 44.560 37.383 27.070 
731 9 1 42.828 37.085 28.822 
732 9 1 40.769 35.515 28.593 
733 9 1 38.376 36.146 29.300 
734 9 1 36.059 37.013 29.871 
735 9 1 33.645 37.810 30.142 
736 9 1 31.262 38.566 30.266 
737 9 1 28.677 38.842 30.353 
738 9 1 26.726 40.108 30.253 
739 9 1 25.436 42.329 29.808 
740 9 1 24.264 44.621 29.603 
741 9 1 23.991 47.125 30.051 
742 9 1 25.754  4.469 29.532 
743 9 1 27.806  5.612 29.652 
744 9 1 28.101  7.265 31.627 
745 9 1 28.587  6.509 34.111 
746 9 1 30.872  5.982 35.127 
747 9 1 33.209  5.072 35.896 
748 9 1 35.628  4.656 36.513 
749 9 1 38.178  3.867 36.631 
750 9 1 40.645  3.257 36.119 
751 9 1 42.019  4.157 37.842 
752 9 1 42.966  5.959 39.337 
753 10 1 50.216 24.179 26.890 
754 10 1 51.092 26.510 27.426 
755 10 1 51.976 28.863 27.713 
756 10 1 53.029 30.934 28.650 
757 10 1 53.807 33.100 29.941 
758 10 1 -4.822 35.127 31.127 
759 10 1 -3.869 37.202 32.269 
760 10 1 -2.925 36.589 34.313 
761 10 1 -2.008 34.729 35.732 
762 10 1 -2.104 33.443 37.618 
763 10 1 -2.286 32.155 39.488 
764 10 1 -1.269 30.680 40.815 
765 10 1  0.552 29.484 41.952 
766 10 1  2.362 28.007 42.927 
767 10 1  3.707 27.665 44.800 
768 10 1  5.074 28.206 46.846 
769 10 1  6.616 30.235 47.338 
770 10 1  7.599 32.309  2.790 
771 10 1  9.039 33.552 45.751 
772 10 1 11.308 34.063 44.703 
773 10 1 13.534 34.763 43.620 
774 10 1 15.670 35.842 43.801 
775 10 1 17.665 37.102 44.869 
776 10 1 19.761 38.051 45.931 
777 10 1 21.610 38.806 47.512 
778 10 1 23.773 38.970  4.244 
779 10 1 26.275 38.739  4.547 
780 10 1 28.850 38.592  4.976 
781 10 1 31.375 38.810  4.923 
782 10 1 33.434 39.874  4.376 
783 10 1 35.423 40.903  4.266 
784 10 1 37.884 41.401  4.841 
785 10 1 39.457 40.100  6.516 
786 10 1 40.421 38.746  8.360 
787 10 1 42.702 37.887  8.915 
788 10 1 44.902 37.222  9.803 
789 10 1 47.263 36.400 10.826 
790 10 1 47.488 34.306 12.365 
791 10 1 47.148 32.011 13.405 
792 10 1 45.746 30.343 14.218 
793 10 1 43.867 28.828 14.668 
794 10 1 42.524 26.726 15.095 
795 10 1 41.708 24.365 15.635 
796 10 1 40.940 21.878 15.706 
797 10 1 40.112 19.520 15.667 
798 10 1 39.506 17.086 15.747 
799 10 1 41.064 15.534 15.701 
800 10 1 42.664 13.805 16.810 
801 10 1 44.066 11.799 17.867 
802 10 1 44.979  9.701 18.951 
803 10 1 46.306  7.854 20.197 
804 10 1 47.173  8.221 22.587 
805 10 1 47.607  9.141 24.979 
806 10 1 47.767 10.197 27.380 
807 10 1 48.920 11.158 29.100 
808 10 1 50.352 12.772 29.957 
809 10 1 51.047 15.153 30.390 
810 10 1 51.566 17.668 30.856 
811 10 1 51.695 20.109 31.268 
812 10 1 52.012 22.634 31.298 
813 10 1 54.176 23.835 31.978 
814 10 1 -2.975 24.395 32.348 
815 10 1 -1.401 25.835 33.105 
816 10 1 -0.553 27.569 34.735 
817 10 1  0.717 29.205 36.279 
818 10 1  2.557 30.098 37.424 
819 10 1  3.568 31.776 36.061 
820 10 1  3.968 34.230 35.262 
821 10 1  4.198 36.573 34.430 
822 10 1  4.992 38.700 33.603 
823 10 1  5.594 41.000 33.232 
824 10 1  5.215 43.501 32.827 
825 10 1  5.270 45.932 32.417 
826 10 1  6.325  3.813 32.373 
827 10 1  6.925  6.308 32.421 
828 10 1  7.253  8.912 32.639 
829 10 1  6.011 10.480 34.439 
830 10 1  6.725 12.955 35.239 
831 11 1 51.872 33.694 34.570 
832 11 1 50.385 32.296 33.038 
833 11 1 48.836 30.612 31.825 
834 11 1 47.302 29.022 30.595 
835 11 1 45.753 27.275 29.607 
836 11 1 44.382 25.275 28.863 
837 11 1 43.117 23.175 28.335 
838 11 1 42.227 20.890 27.374 
839 11 1 41.615 19.477 25.580 
840 11 1 40.849 19.029 23.230 
841 11 1 40.500 20.727 21.348 
842 11 1 40.451 22.927 20.227 
843 11 1 40.573 25.364 19.686 
844 11 1 40.619 27.825 18.955 
845 11 1 40.572 30.228 18.355 
846 11 1 39.914 32.086 17.348 
847 11 1 38.083 33.270 16.000 
848 11 1 35.918 34.158 17.112 
849 11 1 33.672 33.420 17.289 
850 11 1 32.033 31.794 18.561 
851 11 1 30.235 30.373 18.748 
852 11 1 30.502 28.378 17.137 
853 11 1 28.698 27.221 16.357 
854 11 1 27.129 25.330 16.429 
855 11 1 25.985 23.463 15.435 
856 11 1 24.625 22.565 13.366 
857 11 1 23.329 21.506 11.330 
858 11 1 22.468 19.855  9.491 
859 11 1 22.223 17.805  8.386 
860 11 1 22.627 15.355  7.692 
861 11 1 22.363 13.061  7.979 
862 11 1 21.239 10.953  8.839 
863 11 1 20.177  8.891  9.947 
864 11 1 18.764  7.213  9.936 
865 11 1 19.408  5.136  8.527 
866 11 1 19.231  2.826  7.602 
867 11 1 18.871 44.810  7.099 
868 11 1 18.776 42.138  7.057 
869 11 1 19.935 40.163  7.459 
870 11 1 21.888 38.544  7.971 
871 11 1 23.055 36.579  8.407 
872 11 1 24.204 34.617  8.285 
873 11 1 24.305 34.077  5.759 
874 11 1 24.128 33.775  3.284 
875 11 1 25.423 34.747 45.657 
876 11 1 26.434 35.619 43.424 
877 11 1 28.087 34.279 42.095 
878 11 1 29.777 32.785 41.748 
879 11 1 29.038 30.315 42.381 
880 11 1 30.394 28.999 43.791 
881 11 1 31.477 27.206 44.883 
882 11 1 32.243 26.310 46.847 
883 11 1 32.799 26.353  4.950 
884 11 1 32.392 28.014  6.892 
885 11 1 31.688 30.001  7.782 
886 11 1 30.712 32.363  7.749 
887 11 1 29.523 33.959  8.662 
888 11 1 28.438 35.136 10.667 
889 11 1 27.008 36.592 11.790 
890 11 1 24.890 37.990 12.023 
891 11 1 22.674 39.291 12.260 
892 11 1 20.662 40.893 12.211 
893 11 1 19.028 42.895 12.133 
894 11 1 17.969 45.283 12.424 
895 11 1 17.093  3.243 12.939 
896 11 1 15.721  5.115 13.820 
897 11 1 14.015  6.351 15.198 
898 11 1 12.134  7.496 16.544 
899 11 1 10.961  9.377 17.128 
900 11 1 10.399 11.791 17.518 
901 11 1 10.420 12.812 15.485 
902 11 1 11.028 13.228 13.011 
903 11 1 12.757 11.859 11.724 
904 11 1 13.774 10.144 10.611 
905 11 1 13.569  8.032  9.162 
906 11 1 13.783  5.887  7.809 
907 11 1 14.032  3.431  7.158 
908 11 1 14.424 45.458  6.780 
909 12 1 28.937 15.618 41.232 
910 12 1 30.467 17.313 42.301 
911 12 1 32.251 18.266 43.413 
912 12 1 34.026 19.264 44.612 
913 12 1 34.871 20.872 46.282 
914 12 1 35.627 22.784  3.330 
915 12 1 36.404 25.056  4.150 
916 12 1 38.142 26.793  3.304 
917 12 1 40.106 28.249  2.321 
918 12 1 40.513 30.819  2.411 
919 12 1 40.939 33.408  2.669 
920 12 1 40.113 35.396  3.652 
921 12 1 39.871 35.875  5.874 
922 12 1 40.462 33.640  7.241 
923 12 1 40.365 31.311  7.435 
924 12 1 39.323 29.227  7.437 
925 12 1 37.675 27.447  8.011 
926 12 1 35.944 25.628  8.562 
927 12 1 34.180 23.882  9.013 
928 12 1 31.628 23.901  8.529 
929 12 1 29.692 24.081  7.312 
930 12 1 28.537 24.827  5.161 
931 12 1 27.436 25.472  2.887 
932 12 1 26.846 25.648 44.686 
933 12 1 25.985 25.732 42.225 
934 12 1 24.676 25.483 40.029 
935 12 1 23.509 24.775 37.982 
936 12 1 21.545 23.647 37.575 
937 12 1 19.444 22.747 37.891 
938 12 1 17.008 23.358 38.592 
939 12 1 15.966 25.595 39.331 
940 12 1 14.872 27.624 40.491 
941 12 1 13.537 29.308 42.004 
942 12 1 12.058 28.583 43.993 
943 12 1 10.689 27.825 45.950 
944 12 1 10.086 26.549  3.449 
945 12 1 10.174 27.936  5.269 
946 12 1  9.240 29.390  7.078 
947 12 1  7.440 28.503  8.665 
948 12 1  5.832 27.348 10.291 
949 12 1  4.334 26.015 11.813 
950 12 1  3.235 24.465 13.529 
951 12 1  2.425 23.310 15.663 
952 12 1  3.177 23.904 17.996 
953 12 1  4.056 23.874 20.424 
954 12 1  5.721 23.711 21.955 
955 12 1  8.157 23.682 22.768 
956 12 1 10.315 23.206 23.872 
957 12 1 12.361 22.497 25.274 
958 12 1 13.705 22.780 27.211 
959 12 1 14.294 23.760 29.433 
960 12 1 14.198 26.319 29.806 
961 12 1 13.417 28.523 29.613 
962 12 1 11.003 28.987 30.406 
963 12 1  8.554 29.503 30.980 
964 12 1  6.076 29.232 31.501 
965 12 1  3.548 29.172 31.957 
966 12 1  1.595 28.018 30.614 
967 12 1 -0.205 27.143 29.136 
968 12 1 -2.228 26.209 27.882 
969 12 1 -3.809 24.516 27.479 
970 12 1 -4.910 22.262 27.221 
971 12 1 53.860 19.810 26.850 
972 12 1 53.117 17.311 26.637 
973 12 1 52.037 15.141 25.950 
974 12 1 50.582 13.392 24.769 
975 12 1 48.542 13.830 23.236 
976 12 1 46.119 12.922 23.384 
977 12 1 43.912 11.613 23.452 
978 12 1 41.925 12.463 22.242 
979 12 1 40.406 14.226 21.109 
980 12 1 38.755 16.068 20.292 
981 12 1 37.144 17.885 19.676 
982 12 1 35.658 19.936 19.260 
983 12 1 35.235 21.110 17.041 
984 12 1 36.030 23.567 16.392 
985 12 1 36.584 26.151 15.937 
986 12 1 36.940 28.758 15.614 