LAMMPS data file generated by aa2cg.

2000 atoms
1 atom types
1975 bonds
1 bond types
1950 angles
1 angle types
1925 dihedrals
1 dihedral types

 0.000 41.578 xlo xhi
 0.000 42.469 ylo yhi
 0.000 66.475 zlo zhi

Masses

1 24.022

Atoms # molecular

1 1 1  5.246 41.476  2.397 
2 1 1 40.795 39.913 45.852 
3 2 1 18.831 43.524 15.720 
4 2 1 29.375 43.823  7.816 
5 3 1 13.265  4.313 12.907 
6 3 1 32.703 41.726 46.460 
7 4 1 24.763 34.753 39.865 
8 4 1 13.106 25.765 43.468 
9 5 1 38.404 28.816 31.261 
10 5 1 17.650 16.242  0.964 
11 6 1 10.449 17.343 14.447 
12 6 1 10.459  5.191 49.521 
13 7 1 14.609 24.420 50.312 
14 7 1 40.806 12.006  5.259 
15 8 1 14.917 40.769 38.118 
16 8 1  5.088 39.791  5.932 
17 9 1 20.919 26.598 16.217 
18 9 1  8.097 18.624 35.943 
19 10 1 17.007  5.922 38.165 
20 10 1 33.210 30.209 -9.363 
21 11 1 29.472 13.198 -0.635 
22 11 1 12.545 25.356  4.280 
23 12 1 43.328  7.681 -2.246 
24 12 1 23.650 35.002 45.593 
25 13 1 12.418 20.322 35.255 
26 13 1 23.413 39.664 47.982 
27 14 1 41.340  7.195 17.083 
28 14 1 28.380 18.512 11.614 
29 15 1  8.735 29.219 -7.785 
30 15 1 36.303  8.236 -4.157 
31 16 1  5.095  5.775  7.954 
32 16 1 31.403 11.585 39.731 
33 17 1 44.903 11.431 37.571 
34 17 1 18.658  4.978 50.127 
35 18 1  6.222 35.687 37.500 
36 18 1 40.988 41.212 50.229 
37 19 1  7.177 19.484  4.758 
38 19 1 42.023 17.489 48.008 
39 20 1 17.705 19.114  7.096 
40 20 1 30.759 27.865 28.419 
41 21 1 36.152 17.879 -0.840 
42 21 1 28.828 38.372 -9.003 
43 22 1 13.703 21.345 -5.811 
44 22 1 28.500 26.052 24.550 
45 23 1 34.086 23.389 56.095 
46 23 1 39.075 31.850 10.914 
47 24 1 18.680  7.779 45.369 
48 24 1 24.597 17.699 42.130 
49 25 1  9.005 45.864 40.217 
50 25 1 19.649 44.426  2.018 
51 1 1  5.988 43.791  1.591 
52 1 1  7.738 45.126  0.812 
53 1 1 10.172 45.422  0.048 
54 1 1 12.490 45.097 -0.976 
55 1 1 14.915 45.393 -1.700 
56 1 1 17.110  4.159 -2.127 
57 1 1 19.624  5.046 -2.307 
58 1 1 21.642  4.137 -0.989 
59 1 1 23.658 45.407  0.411 
60 1 1 26.110  3.146 -0.299 
61 1 1 28.218 45.514 -1.817 
62 1 1 30.064 46.269 -2.892 
63 1 1 30.232  6.380 -2.904 
64 1 1 29.572  8.560 -3.557 
65 1 1 28.228 10.363 -4.748 
66 1 1 26.632 12.000 -5.954 
67 1 1 24.984 13.350 -7.231 
68 1 1 23.364 14.551 -8.893 
69 1 1 23.844 16.260 55.646 
70 1 1 24.574 17.909 53.923 
71 1 1 25.798 19.412 52.267 
72 1 1 26.640 21.409 51.396 
73 1 1 26.770 23.955 51.145 
74 1 1 25.383 25.522 49.698 
75 1 1 26.088 27.951 48.887 
76 1 1 24.712 30.079 49.402 
77 1 1 23.231 32.109 49.887 
78 1 1 21.196 33.775 49.945 
79 1 1 19.075 35.363 49.753 
80 1 1 17.000 36.871 49.641 
81 1 1 14.590 37.528 48.917 
82 1 1 12.303 38.068 47.791 
83 1 1 10.157 38.521 46.318 
84 1 1  8.149 37.946 45.497 
85 1 1  6.496 36.077 45.023 
86 1 1  5.145 34.175 44.121 
87 1 1 45.177 32.159 43.336 
88 1 1  4.035 29.850 42.412 
89 1 1  5.338 28.206 41.409 
90 1 1  6.517 26.288 40.548 
91 1 1  5.311 24.830 38.820 
92 1 1  3.850 23.806 36.952 
93 1 1 43.190 23.655 36.091 
94 1 1 41.314 23.590 37.963 
95 1 1 39.537 23.524 39.796 
96 1 1 38.273 25.462 40.928 
97 1 1 36.877 27.338 42.084 
98 1 1 35.514 29.008 43.483 
99 1 1 34.142 30.374 45.146 
100 1 1 32.948 31.910 46.754 
101 1 1 32.719 33.613 48.663 
102 1 1 32.459 35.039 50.926 
103 1 1 32.293 36.903 52.346 
104 1 1 31.690 38.771 53.522 
105 1 1 32.896 39.367 55.781 
106 1 1 34.008 39.916 58.055 
107 1 1 35.329 41.330 -7.134 
108 1 1 34.632 43.694 -6.420 
109 1 1 34.359 46.229 -5.718 
110 1 1 33.556  5.787 -6.452 
111 1 1 32.288  7.558 -7.940 
112 1 1 31.049  9.553 -9.102 
113 1 1 29.604 11.468 56.386 
114 1 1 27.859 13.144 55.542 
115 1 1 27.950 14.926 53.812 
116 1 1 28.498 14.942 51.639 
117 1 1 30.071 13.593 50.096 
118 1 1 29.700 11.597 48.447 
119 1 1 29.379 10.079 46.393 
120 1 1 28.994  8.701 44.287 
121 1 1 28.607  6.194 44.066 
122 1 1 28.043  3.699 43.784 
123 1 1 28.203 44.327 41.899 
124 1 1 30.387 43.772 41.867 
125 1 1 32.820 43.597 41.378 
126 1 1 35.064 42.442 41.646 
127 1 1 37.108 41.469 42.770 
128 1 1 39.075 40.546 44.087 
129 2 1 19.607 40.968 15.685 
130 2 1 20.173 38.478 15.130 
131 2 1 22.046 37.501 13.608 
132 2 1 23.630 36.557 11.933 
133 2 1 24.227 34.174 11.289 
134 2 1 25.007 31.753 10.808 
135 2 1 26.060 30.975  8.528 
136 2 1 26.919 30.701  6.221 
137 2 1 27.546 30.331  3.764 
138 2 1 29.823 30.033  2.575 
139 2 1 32.118 30.135  1.412 
140 2 1 34.499 30.194  0.260 
141 2 1 36.701 30.625 -0.918 
142 2 1 39.148 30.472 -1.621 
143 2 1 41.636 30.192 -2.132 
144 2 1 44.138 29.881 -2.619 
145 2 1  5.025 29.393 -2.838 
146 2 1  7.541 29.133 -2.821 
147 2 1  9.701 29.321 -1.968 
148 2 1 11.589 30.362 -0.532 
149 2 1 13.726 31.054  0.669 
150 2 1 16.117 31.260  0.984 
151 2 1 18.650 30.844  1.144 
152 2 1 21.143 30.423  1.904 
153 2 1 21.843 29.259  4.195 
154 2 1 22.520 28.447  6.572 
155 2 1 23.382 28.000  9.008 
156 2 1 24.236 27.247 11.423 
157 2 1 26.530 27.820 11.675 
158 2 1 28.691 28.811 10.792 
159 2 1 31.021 29.386  9.865 
160 2 1 33.310 29.951  8.894 
161 2 1 35.117 30.760  7.276 
162 2 1 36.771 31.894  5.762 
163 2 1 36.336 32.746  3.539 
164 2 1 37.143 34.531  1.895 
165 2 1 37.863 35.397 -0.249 
166 2 1 38.903 34.918 -2.484 
167 2 1 40.195 34.299 -4.562 
168 2 1 41.929 33.463 -6.246 
169 2 1 44.090 32.740 -7.027 
170 2 1  5.038 32.469 -6.548 
171 2 1  5.299 33.415 -4.547 
172 2 1  4.460 34.385 -2.612 
173 2 1  3.307 34.265 -0.314 
174 2 1 43.463 34.056  1.760 
175 2 1 41.978 33.603  3.868 
176 2 1 41.373 31.526  5.214 
177 2 1 41.157 29.291  6.343 
178 2 1 41.095 27.040  7.618 
179 2 1 38.954 26.232  7.157 
180 2 1 36.779 25.844  7.067 
181 2 1 34.494 25.194  7.934 
182 2 1 32.193 24.583  8.453 
183 2 1 29.666 24.403  8.699 
184 2 1 27.216 23.815  9.381 
185 2 1 25.809 22.734 11.032 
186 2 1 24.864 20.826 12.399 
187 2 1 24.750 19.774 14.328 
188 2 1 26.018 19.235 16.582 
189 2 1 28.386 18.320 16.562 
190 2 1 30.566 19.697 16.389 
191 2 1 32.564 21.253 16.638 
192 2 1 34.488 22.848 17.146 
193 2 1 36.307 24.742 17.467 
194 2 1 37.574 27.045 17.394 
195 2 1 38.409 29.484 16.977 
196 2 1 38.812 31.923 16.281 
197 2 1 38.805 34.331 15.216 
198 2 1 39.207 36.009 13.763 
199 2 1 39.828 36.737 11.319 
200 2 1 40.392 37.667  8.989 
201 2 1 38.851 38.478  7.076 
202 2 1 36.952 39.319  6.086 
203 2 1 35.055 37.566  5.694 
204 2 1 32.570 38.313  5.783 
205 2 1 31.022 39.940  6.044 
206 2 1 30.327 41.974  6.807 
207 3 1 15.273 45.411 12.045 
208 3 1 15.162 43.926  9.992 
209 3 1 15.060 42.421  7.943 
210 3 1 14.498 40.604  6.678 
211 3 1 15.412 38.248  7.298 
212 3 1 14.167 36.201  8.034 
213 3 1 12.932 34.084  9.015 
214 3 1 12.890 33.082 11.354 
215 3 1 12.277 32.306 13.605 
216 3 1 12.057 31.493 15.858 
217 3 1 12.948 30.770 18.157 
218 3 1 13.261 30.782 20.534 
219 3 1 13.851 31.449 22.612 
220 3 1 15.382 31.390 24.678 
221 3 1 17.635 30.071 24.618 
222 3 1 19.163 30.860 26.089 
223 3 1 20.170 32.820 27.323 
224 3 1 21.802 34.227 28.243 
225 3 1 24.168 34.840 29.022 
226 3 1 26.518 35.554 29.686 
227 3 1 28.571 36.674 29.430 
228 3 1 30.306 38.208 28.171 
229 3 1 30.241 39.844 26.156 
230 3 1 30.283 41.509 24.287 
231 3 1 30.383 43.366 22.467 
232 3 1 31.045 45.508 21.405 
233 3 1 30.776  5.200 21.145 
234 3 1 29.542  7.402 21.220 
235 3 1 28.181  9.580 20.898 
236 3 1 28.071 11.871 21.008 
237 3 1 29.020 14.194 21.219 
238 3 1 30.027 16.515 21.460 
239 3 1 30.217 18.660 22.088 
240 3 1 30.318 20.986 23.179 
241 3 1 30.822 23.233 24.405 
242 3 1 32.836 24.203 25.766 
243 3 1 34.833 25.054 27.301 
244 3 1 36.107 24.673 29.223 
245 3 1 34.490 24.412 31.185 
246 3 1 32.345 24.429 31.933 
247 3 1 30.696 23.445 30.356 
248 3 1 29.465 21.880 29.249 
249 3 1 29.321 19.880 27.620 
250 3 1 30.020 17.456 27.692 
251 3 1 29.047 15.595 26.455 
252 3 1 27.562 14.571 25.095 
253 3 1 25.390 14.236 23.671 
254 3 1 22.886 14.013 23.116 
255 3 1 20.432 13.587 22.866 
256 3 1 18.629 12.397 23.419 
257 3 1 17.954 10.314 24.689 
258 3 1 17.259  8.129 25.966 
259 3 1 18.521  6.566 27.411 
260 3 1 17.555  4.472 28.556 
261 3 1 19.205 45.290 29.710 
262 3 1 20.829 44.151 31.423 
263 3 1 22.737 43.879 32.703 
264 3 1 24.875 44.770 33.757 
265 3 1 26.933 45.736 34.967 
266 3 1 29.037 46.539 36.156 
267 3 1 31.177  3.957 36.996 
268 3 1 33.211 46.151 37.871 
269 3 1 35.324  4.192 39.178 
270 3 1 37.526  4.065 40.598 
271 3 1 39.563 45.936 42.056 
272 3 1 41.313  5.022 43.230 
273 3 1 42.830  6.623 44.670 
274 3 1 43.924  8.575 45.305 
275 3 1 42.612 10.510 46.315 
276 3 1 41.600 12.350 47.638 
277 3 1 40.108 13.098 49.205 
278 3 1 37.792 13.387 50.296 
279 3 1 35.539 13.159 48.991 
280 3 1 34.113 10.975 48.855 
281 3 1 32.999  8.745 48.331 
282 3 1 32.138  6.411 47.504 
283 3 1 31.633  3.997 46.641 
284 3 1 31.626 44.097 46.332 
285 4 1 23.259 33.122 40.675 
286 4 1 21.237 31.484 40.708 
287 4 1 19.251 29.881 40.689 
288 4 1 16.710 29.657 40.196 
289 4 1 15.654 28.157 38.386 
290 4 1 14.637 26.441 36.718 
291 4 1 14.562 26.439 34.155 
292 4 1 12.723 26.858 32.426 
293 4 1 10.506 27.359 31.556 
294 4 1  8.772 28.819 32.039 
295 4 1  7.490 31.021 32.573 
296 4 1  6.459 33.420 32.843 
297 4 1  4.610 34.838 32.525 
298 4 1 43.841 35.680 31.598 
299 4 1 42.252 37.068 30.315 
300 4 1 41.564 39.102 29.004 
301 4 1 40.777 41.115 27.496 
302 4 1 41.149 41.550 24.972 
303 4 1 41.222 42.259 22.469 
304 4 1 40.089 44.166 21.106 
305 4 1 40.300  4.149 21.295 
306 4 1 39.843  6.515 22.427 
307 4 1 39.119  8.887 23.360 
308 4 1 38.747 11.166 22.165 
309 4 1 37.912 13.317 21.070 
310 4 1 36.935 15.306 19.886 
311 4 1 35.626 17.158 18.559 
312 4 1 34.253 16.719 16.536 
313 4 1 33.597 16.283 14.085 
314 4 1 33.511 16.020 11.479 
315 4 1 34.364 15.812  8.989 
316 4 1 35.226 15.685  6.608 
317 4 1 36.458 15.419  4.287 
318 4 1 37.574 14.815  2.027 
319 4 1 38.701 14.150 -0.207 
320 4 1 40.945 12.854  0.008 
321 4 1 42.392 11.217  0.733 
322 4 1 43.001  8.983  1.749 
323 4 1 43.475  6.658  2.747 
324 4 1 43.711  4.329  3.840 
325 4 1 43.686 44.481  4.930 
326 4 1 42.922 44.179  7.469 
327 4 1 42.764 41.768  8.615 
328 4 1 42.905 41.155 11.101 
329 4 1 43.050 40.391 13.613 
330 4 1 42.505 39.885 15.976 
331 4 1 41.816 39.181 18.347 
332 4 1 41.500 37.964 20.723 
333 4 1 41.327 36.683 23.093 
334 4 1 39.367 37.343 24.177 
335 4 1 37.198 38.584 24.517 
336 4 1 36.546 40.796 23.484 
337 4 1 36.066 43.111 22.603 
338 4 1 35.843 45.570 22.106 
339 4 1 35.395  5.610 21.857 
340 4 1 34.618  8.040 21.214 
341 4 1 33.714 10.330 20.533 
342 4 1 32.906 12.520 19.466 
343 4 1 31.588 13.195 17.351 
344 4 1 30.426 13.720 15.156 
345 4 1 28.002 14.529 14.685 
346 4 1 25.528 14.994 13.985 
347 4 1 23.281 15.302 14.216 
348 4 1 21.336 15.441 16.013 
349 4 1 19.445 15.244 17.659 
350 4 1 17.411 15.306 19.290 
351 4 1 15.551 15.117 21.022 
352 4 1 15.442 16.377 23.243 
353 4 1 15.359 17.476 25.463 
354 4 1 15.418 18.911 27.613 
355 4 1 13.492 20.246 28.708 
356 4 1 11.759 21.214 30.309 
357 4 1 10.093 22.328 31.867 
358 4 1  8.578 23.429 33.685 
359 4 1  9.438 25.046 35.558 
360 4 1 10.272 25.633 37.672 
361 4 1 10.860 25.550 40.127 
362 4 1 11.155 25.848 42.576 
363 5 1 36.151 29.261 32.320 
364 5 1 33.876 29.741 33.516 
365 5 1 31.578 28.605 33.161 
366 5 1 29.873 29.413 34.423 
367 5 1 28.892 30.267 36.666 
368 5 1 28.470 32.063 38.060 
369 5 1 29.014 34.422 38.906 
370 5 1 28.811 36.166 40.411 
371 5 1 27.426 37.033 42.455 
372 5 1 26.776 38.643 43.930 
373 5 1 27.270 40.799 45.313 
374 5 1 26.770 42.715 46.608 
375 5 1 26.486 44.670 47.746 
376 5 1 27.212  4.411 48.959 
377 5 1 27.855  6.751 49.806 
378 5 1 27.311  8.898 50.541 
379 5 1 25.838 10.941 51.033 
380 5 1 24.333 13.083 51.394 
381 5 1 22.664 14.276 49.756 
382 5 1 20.811 16.142 50.229 
383 5 1 19.270 18.167 50.208 
384 5 1 18.561 20.230 51.046 
385 5 1 18.677 22.439 52.247 
386 5 1 20.590 23.198 53.229 
387 5 1 23.060 23.161 53.949 
388 5 1 25.306 23.065 55.186 
389 5 1 27.297 22.704 56.774 
390 5 1 29.078 22.009 -7.885 
391 5 1 31.455 20.877 -8.111 
392 5 1 33.697 19.553 -8.545 
393 5 1 35.761 18.188 57.251 
394 5 1 38.171 18.434 -8.436 
395 5 1 39.773 16.530 -8.089 
396 5 1 41.702 14.922 -7.445 
397 5 1 44.031 14.717 -8.581 
398 5 1  4.873 15.166 57.027 
399 5 1  7.066 15.903 -8.441 
400 5 1  8.659 16.432 -6.933 
401 5 1  9.666 16.134 -4.524 
402 5 1 10.439 13.967 -3.556 
403 5 1  9.360 13.064 -1.400 
404 5 1  8.310 12.233  0.784 
405 5 1  7.450 11.507  3.088 
406 5 1  6.503 10.932  5.385 
407 5 1  5.628 10.898  7.843 
408 5 1  4.883 10.604 10.335 
409 5 1 45.420  8.425 11.355 
410 5 1 45.321  7.471 13.772 
411 5 1  4.610  6.404 16.002 
412 5 1  6.625  4.832 16.383 
413 5 1  8.762  3.517 16.716 
414 5 1 11.109 45.005 17.144 
415 5 1 11.856 42.636 16.256 
416 5 1 13.778 41.040 16.878 
417 5 1 15.673 39.675 17.889 
418 5 1 17.398 39.393 19.476 
419 5 1 19.495 40.041 20.331 
420 5 1 21.742 39.404 20.491 
421 5 1 22.755 37.572 19.007 
422 5 1 24.347 36.300 17.469 
423 5 1 26.099 35.197 15.902 
424 5 1 27.912 34.013 14.402 
425 5 1 28.839 33.732 12.287 
426 5 1 28.741 34.243  9.713 
427 5 1 29.259 34.343  7.236 
428 5 1 29.533 34.419  4.577 
429 5 1 28.301 35.951  2.926 
430 5 1 28.633 38.286  2.049 
431 5 1 29.093 40.666  1.363 
432 5 1 29.049 42.873  2.048 
433 5 1 28.404 45.080  3.195 
434 5 1 27.701  5.007  3.676 
435 5 1 25.393  5.985  3.951 
436 5 1 23.086  6.933  3.852 
437 5 1 20.691  7.860  3.282 
438 5 1 19.232  9.664  4.459 
439 5 1 18.847 11.911  3.194 
440 5 1 18.049 14.030  1.986 
441 6 1 10.156 18.987 16.458 
442 6 1  9.439 20.570 18.372 
443 6 1  8.453 22.283 20.069 
444 6 1  7.553 24.120 21.756 
445 6 1  7.491 26.694 21.349 
446 6 1  7.288 29.191 20.684 
447 6 1  7.148 31.543 19.676 
448 6 1  9.094 33.015 20.089 
449 6 1  9.238 35.506 20.653 
450 6 1  9.000 37.031 22.719 
451 6 1 10.724 37.028 24.289 
452 6 1 12.071 35.652 25.941 
453 6 1 13.748 34.838 27.239 
454 6 1 15.514 35.249 29.060 
455 6 1 17.436 35.543 30.765 
456 6 1 19.350 35.379 32.543 
457 6 1 21.205 35.144 34.306 
458 6 1 23.313 35.003 34.988 
459 6 1 25.806 35.192 34.719 
460 6 1 28.357 35.257 34.375 
461 6 1 30.834 35.144 34.393 
462 6 1 32.968 34.487 35.030 
463 6 1 33.279 35.171 37.473 
464 6 1 32.806 36.204 39.810 
465 6 1 32.325 37.272 42.038 
466 6 1 31.735 38.288 44.325 
467 6 1 31.031 37.116 46.447 
468 6 1 30.024 38.110 48.496 
469 6 1 29.545 39.892 49.896 
470 6 1 29.432 42.365 50.631 
471 6 1 31.490 43.932 50.431 
472 6 1 33.631 45.333 50.384 
473 6 1 35.400  4.683 49.667 
474 6 1 37.277  6.282 48.805 
475 6 1 38.369  7.178 47.007 
476 6 1 37.158  8.671 45.266 
477 6 1 35.511  9.971 44.308 
478 6 1 33.386 11.349 44.037 
479 6 1 32.351 13.355 44.703 
480 6 1 31.907 15.441 46.188 
481 6 1 31.080 17.121 47.894 
482 6 1 30.257 18.815 49.642 
483 6 1 31.333 19.253 51.925 
484 6 1 30.646 18.849 54.076 
485 6 1 29.078 18.171 55.989 
486 6 1 27.703 17.678 -8.355 
487 6 1 26.916 17.564 -6.005 
488 6 1 26.124 16.539 -3.896 
489 6 1 25.306 15.021 -2.081 
490 6 1 24.749 13.226 -0.366 
491 6 1 22.500 11.915 -0.582 
492 6 1 20.332 10.774 -1.215 
493 6 1 18.168  9.641 -2.095 
494 6 1 16.002  8.458 -2.948 
495 6 1 15.530  7.268 -5.161 
496 6 1 15.080  7.322 -7.455 
497 6 1 15.135  8.557 56.704 
498 6 1 15.930 10.932 56.007 
499 6 1 17.237 12.856 55.935 
500 6 1 19.440 12.224 54.868 
501 6 1 21.646 11.141 53.931 
502 6 1 23.495 10.171 55.419 
503 6 1 25.281  9.074 56.904 
504 6 1 26.878  7.881 -7.960 
505 6 1 28.400  5.716 -8.014 
506 6 1 30.014  3.757 -8.180 
507 6 1 29.544 43.861 -7.077 
508 6 1 28.120 41.982 -6.488 
509 6 1 25.788 40.812 -6.591 
510 6 1 23.249 40.463 -7.035 
511 6 1 20.683 40.408 -7.508 
512 6 1 18.230 39.542 -7.866 
513 6 1 16.498 40.443 56.799 
514 6 1 14.596 41.502 55.434 
515 6 1 13.261 40.175 53.797 
516 6 1 12.843 41.435 51.922 
517 6 1 11.603 43.159 50.508 
518 6 1 10.519 45.140 49.104 
519 7 1 12.302 24.418 50.514 
520 7 1  9.854 24.904 49.953 
521 7 1  8.023 26.301 50.142 
522 7 1  6.598 27.520 51.517 
523 7 1  4.442 27.678 52.278 
524 7 1 44.641 25.524 51.826 
525 7 1 44.422 23.209 51.461 
526 7 1 44.967 20.676 50.981 
527 7 1  5.639 19.650 50.010 
528 7 1  7.697 19.717 48.763 
529 7 1  9.732 20.871 47.668 
530 7 1 11.865 21.848 46.534 
531 7 1 14.116 22.071 46.538 
532 7 1 16.530 21.300 46.163 
533 7 1 18.883 20.054 45.995 
534 7 1 19.233 17.502 46.078 
535 7 1 19.148 15.057 45.976 
536 7 1 19.400 12.517 46.285 
537 7 1 20.294 11.454 48.071 
538 7 1 20.853  9.885 49.705 
539 7 1 22.180  7.850 50.259 
540 7 1 23.324  6.332 51.663 
541 7 1 24.798  5.622 53.628 
542 7 1 26.891  4.979 54.380 
543 7 1 29.196  4.162 53.660 
544 7 1 31.427  5.324 53.583 
545 7 1 33.503  6.787 53.170 
546 7 1 35.690  7.977 52.858 
547 7 1 37.978  8.981 52.724 
548 7 1 40.388  9.818 51.891 
549 7 1 42.740 10.309 52.894 
550 7 1 45.069 10.668 53.895 
551 7 1  5.865 11.300 54.705 
552 7 1  8.295 11.497 55.684 
553 7 1 10.606 11.670 56.733 
554 7 1 12.055 11.426 -7.926 
555 7 1 13.062 11.782 -5.943 
556 7 1 14.679 13.113 -4.503 
557 7 1 15.027 14.669 -2.811 
558 7 1 13.777 16.984 -2.698 
559 7 1 12.245 19.078 -2.474 
560 7 1 11.155 21.338 -1.774 
561 7 1 11.154 22.116  0.646 
562 7 1  9.088 22.751  2.254 
563 7 1  6.931 23.113  3.521 
564 7 1  4.662 23.694  3.823 
565 7 1 43.843 23.867  3.539 
566 7 1 41.346 23.253  3.505 
567 7 1 39.017 22.425  3.968 
568 7 1 36.620 21.646  4.407 
569 7 1 34.472 20.967  5.377 
570 7 1 32.178 20.099  6.061 
571 7 1 31.172 18.085  7.244 
572 7 1 29.692 16.190  8.168 
573 7 1 27.820 14.641  9.049 
574 7 1 26.083 13.115 10.139 
575 7 1 24.415 11.637 11.353 
576 7 1 23.287 10.324 12.948 
577 7 1 22.853  8.798 14.703 
578 7 1 22.038  6.694 15.821 
579 7 1 21.407  4.522 16.988 
580 7 1 21.842 45.062 18.256 
581 7 1 23.664 43.577 19.354 
582 7 1 25.198 41.786 20.399 
583 7 1 27.037 40.337 21.361 
584 7 1 27.531 37.985 20.588 
585 7 1 29.257 37.090 18.888 
586 7 1 30.928 35.742 17.399 
587 7 1 32.440 34.737 15.818 
588 7 1 34.181 36.530 15.103 
589 7 1 35.601 38.486 14.345 
590 7 1 36.898 40.504 13.332 
591 7 1 38.244 42.531 12.381 
592 7 1 39.572 44.309 10.870 
593 7 1 40.623 46.296  9.731 
594 7 1 41.452  6.079  8.858 
595 7 1 42.200  8.167  7.539 
596 7 1 42.191 10.129  6.206 
597 8 1 13.662 42.884 37.167 
598 8 1 12.390 44.974 36.410 
599 8 1 11.854  4.734 36.653 
600 8 1 11.957  7.090 37.467 
601 8 1 12.375  7.710 39.742 
602 8 1 12.096  7.678 42.207 
603 8 1 10.356  6.577 43.676 
604 8 1  8.248  5.678 45.039 
605 8 1  6.204  4.777 46.401 
606 8 1  4.233  3.488 46.674 
607 8 1 44.736 43.769 45.989 
608 8 1 44.898 41.667 44.364 
609 8 1 44.606 39.424 43.519 
610 8 1 44.304 37.454 42.434 
611 8 1 44.164 35.727 40.511 
612 8 1 44.380 33.847 38.821 
613 8 1 44.824 32.014 37.188 
614 8 1  4.080 30.257 35.503 
615 8 1  4.973 28.289 34.259 
616 8 1  5.752 26.039 33.090 
617 8 1  4.350 24.571 31.486 
618 8 1 44.498 22.775 31.433 
619 8 1 43.408 20.658 32.410 
620 8 1 41.542 20.195 34.239 
621 8 1 40.007 19.709 36.253 
622 8 1 38.470 19.590 38.242 
623 8 1 36.449 19.970 39.401 
624 8 1 34.718 21.376 40.024 
625 8 1 33.695 23.557 41.146 
626 8 1 32.461 25.158 42.716 
627 8 1 31.153 26.516 44.564 
628 8 1 29.846 27.750 46.346 
629 8 1 30.253 29.161 48.376 
630 8 1 30.489 30.571 50.571 
631 8 1 28.801 29.984 52.052 
632 8 1 27.597 28.239 53.654 
633 8 1 25.941 27.642 55.366 
634 8 1 23.668 27.649 55.958 
635 8 1 21.122 27.549 55.838 
636 8 1 18.680 27.102 55.300 
637 8 1 16.487 26.292 54.374 
638 8 1 14.752 27.583 53.193 
639 8 1 12.806 29.064 52.565 
640 8 1 11.218 30.232 54.196 
641 8 1 10.080 32.034 55.649 
642 8 1  8.993 33.747 57.308 
643 8 1  8.381 35.343 -7.202 
644 8 1  6.405 36.583 -7.771 
645 8 1  4.353 37.206 -9.258 
646 8 1  4.859 36.031 55.142 
647 8 1  6.137 34.816 53.290 
648 8 1  8.257 35.909 52.304 
649 8 1 10.410 36.393 52.204 
650 8 1 12.860 35.692 52.576 
651 8 1 15.192 34.850 53.212 
652 8 1 17.320 33.871 54.041 
653 8 1 19.406 32.552 54.689 
654 8 1 21.784 32.278 54.862 
655 8 1 24.288 32.843 54.940 
656 8 1 26.823 32.905 55.144 
657 8 1 29.280 33.121 55.408 
658 8 1 31.609 33.893 55.866 
659 8 1 34.057 34.283 56.214 
660 8 1 35.955 35.520 55.808 
661 8 1 37.320 37.376 54.716 
662 8 1 37.739 39.776 55.498 
663 8 1 39.684 41.617 55.640 
664 8 1 41.578 43.407 55.643 
665 8 1 43.441 44.339 56.756 
666 8 1 45.078 44.199 -7.684 
667 8 1 45.371 42.040 -6.362 
668 8 1  4.395 39.808 -5.376 
669 8 1  3.557 38.905 -3.390 
670 8 1 43.379 37.926 -1.873 
671 8 1 42.025 37.860 -0.128 
672 8 1 41.557 38.216  2.034 
673 8 1 42.260 38.158  4.518 
674 8 1 44.455 39.047  5.548 
675 9 1 23.459 25.996 16.251 
676 9 1 26.008 25.464 16.137 
677 9 1 27.965 24.514 15.352 
678 9 1 29.857 23.788 14.138 
679 9 1 31.838 25.580 14.436 
680 9 1 34.163 25.658 13.439 
681 9 1 36.215 25.170 12.302 
682 9 1 38.304 23.972 11.576 
683 9 1 38.286 21.780 13.013 
684 9 1 37.721 19.672 14.048 
685 9 1 38.173 18.023 12.155 
686 9 1 39.277 16.591 10.312 
687 9 1 40.109 16.145  8.199 
688 9 1 40.633 16.744  5.750 
689 9 1 41.211 17.543  3.347 
690 9 1 41.232 18.469  0.930 
691 9 1 43.151 19.804  0.132 
692 9 1 44.758 18.141  0.494 
693 9 1 45.953 16.552  2.085 
694 9 1  4.768 14.737  3.586 
695 9 1  3.732 14.496  5.977 
696 9 1 44.666 15.424  8.058 
697 9 1 43.872 16.904  9.920 
698 9 1 42.972 18.329 11.827 
699 9 1 43.054 20.921 11.959 
700 9 1 43.753 23.133 11.688 
701 9 1 44.528 25.317 11.661 
702 9 1 44.498 27.903 11.536 
703 9 1 44.648 30.404 11.864 
704 9 1 43.554 32.073 10.074 
705 9 1 42.524 33.561  8.232 
706 9 1 43.695 35.325  7.392 
707 9 1 45.429 36.336  9.052 
708 9 1  5.660 37.822 10.258 
709 9 1  6.497 39.320 11.848 
710 9 1  6.140 40.374 14.175 
711 9 1  5.719 41.719 16.375 
712 9 1  7.462 41.901 18.263 
713 9 1  9.135 41.450 20.244 
714 9 1  8.727 41.253 22.695 
715 9 1  8.246 41.227 25.172 
716 9 1  9.808 40.497 27.023 
717 9 1 11.137 39.645 29.124 
718 9 1 12.449 38.632 31.162 
719 9 1 13.895 37.634 32.959 
720 9 1 15.547 36.921 34.904 
721 9 1 17.182 36.574 37.090 
722 9 1 18.304 36.516 39.433 
723 9 1 19.456 38.432 40.706 
724 9 1 20.684 40.354 41.856 
725 9 1 21.947 42.223 43.056 
726 9 1 22.817 44.362 43.963 
727 9 1 23.725 46.478 44.910 
728 9 1 24.168  6.354 45.672 
729 9 1 24.545  8.627 45.785 
730 9 1 25.123 10.861 46.066 
731 9 1 25.738 13.154 46.318 
732 9 1 25.500 15.415 46.412 
733 9 1 24.343 17.624 47.147 
734 9 1 23.165 19.858 48.011 
735 9 1 21.925 22.052 48.413 
736 9 1 20.485 24.204 48.543 
737 9 1 20.029 26.477 48.665 
738 9 1 21.184 27.535 50.717 
739 9 1 19.870 29.372 51.389 
740 9 1 17.895 30.571 50.937 
741 9 1 16.265 31.779 49.488 
742 9 1 14.859 33.084 47.826 
743 9 1 13.213 33.993 46.094 
744 9 1 11.988 32.542 44.372 
745 9 1 10.622 30.612 43.770 
746 9 1  8.237 30.135 44.724 
747 9 1  7.823 27.806 45.606 
748 9 1  7.689 25.471 45.445 
749 9 1  7.904 23.320 44.003 
750 9 1  8.075 21.290 42.419 
751 9 1  7.882 21.211 39.735 
752 9 1  7.899 20.918 37.067 
753 10 1 18.319  8.027 37.790 
754 10 1 19.292 10.361 37.337 
755 10 1 20.482 12.623 36.765 
756 10 1 21.964 14.389 37.152 
757 10 1 24.012 15.881 37.664 
758 10 1 25.934 17.624 38.052 
759 10 1 28.444 17.003 37.731 
760 10 1 30.748 15.957 37.810 
761 10 1 32.918 17.251 37.463 
762 10 1 35.123 16.633 36.276 
763 10 1 36.650 15.773 34.598 
764 10 1 36.710 17.292 32.876 
765 10 1 37.494 19.445 31.718 
766 10 1 38.082 21.706 30.680 
767 10 1 39.620 23.503 31.637 
768 10 1 41.152 25.314 32.646 
769 10 1 41.772 26.950 34.073 
770 10 1 41.391 28.609 36.041 
771 10 1 41.323 29.762 38.263 
772 10 1 41.019 30.596 40.665 
773 10 1 39.134 31.559 42.007 
774 10 1 37.443 32.971 43.259 
775 10 1 36.009 34.757 44.476 
776 10 1 36.215 36.578 46.312 
777 10 1 36.163 38.359 48.144 
778 10 1 35.920 40.173 49.852 
779 10 1 36.492 42.032 51.142 
780 10 1 37.676 44.323 51.700 
781 10 1 38.719 46.440 52.671 
782 10 1 41.260  4.748 52.652 
783 10 1 42.237  5.996 54.650 
784 10 1 44.679  6.425 55.121 
785 10 1  5.399  5.888 55.400 
786 10 1  6.505  5.217 57.614 
787 10 1  7.288 45.402 -7.839 
788 10 1  8.270 43.114 -6.945 
789 10 1  9.456 40.907 -6.162 
790 10 1 10.841 38.903 -5.458 
791 10 1 12.335 37.013 -4.723 
792 10 1 14.006 35.275 -3.805 
793 10 1 16.038 33.806 -3.183 
794 10 1 18.256 32.601 -2.646 
795 10 1 20.472 31.374 -2.693 
796 10 1 22.476 29.917 -2.872 
797 10 1 24.454 29.914 -1.306 
798 10 1 26.904 29.714 -2.210 
799 10 1 29.275 30.076 -3.044 
800 10 1 31.766 30.453 -3.914 
801 10 1 34.105 30.857 -4.996 
802 10 1 36.345 31.465 -6.071 
803 10 1 38.164 31.579 -7.889 
804 10 1 38.421 30.142 56.784 
805 10 1 37.629 31.459 54.661 
806 10 1 36.771 30.758 52.378 
807 10 1 35.636 29.501 50.577 
808 10 1 34.789 27.547 49.219 
809 10 1 34.788 25.858 47.506 
810 10 1 36.014 24.564 45.554 
811 10 1 36.859 22.130 45.207 
812 10 1 38.485 21.116 43.461 
813 10 1 40.781 19.995 43.873 
814 10 1 41.419 17.551 43.486 
815 10 1 42.454 16.437 41.396 
816 10 1 42.084 15.322 39.392 
817 10 1 40.798 14.485 37.388 
818 10 1 40.079 11.972 36.892 
819 10 1 38.063 11.581 37.882 
820 10 1 36.208 12.131 39.735 
821 10 1 36.031 14.279 41.055 
822 10 1 35.640 16.528 42.263 
823 10 1 35.208 18.462 43.903 
824 10 1 33.054 19.770 44.508 
825 10 1 32.258 21.046 46.576 
826 10 1 31.156 22.720 48.130 
827 10 1 30.971 24.288 49.766 
828 10 1 31.657 25.513 51.886 
829 10 1 32.498 27.240 53.397 
830 10 1 33.107 29.027 54.871 
831 11 1 29.706 14.834 -2.628 
832 11 1 30.165 15.245 -4.761 
833 11 1 31.496 15.117 -7.007 
834 11 1 32.408 15.106 57.088 
835 11 1 32.895 14.604 54.619 
836 11 1 33.687 15.282 52.541 
837 11 1 35.861 16.705 52.893 
838 11 1 37.845 18.169 53.558 
839 11 1 39.743 19.744 54.387 
840 11 1 41.560 21.496 55.017 
841 11 1 43.336 23.205 55.775 
842 11 1 45.608 23.787 55.847 
843 11 1  6.541 23.963 55.226 
844 11 1  8.697 25.059 54.974 
845 11 1 10.625 25.838 55.775 
846 11 1 12.606 25.806 57.387 
847 11 1 14.420 25.902 -7.395 
848 11 1 16.147 26.151 -5.479 
849 11 1 17.827 26.616 -3.670 
850 11 1 19.442 27.184 -1.734 
851 11 1 19.085 26.470  0.767 
852 11 1 18.550 26.234  3.306 
853 11 1 17.474 27.258  5.055 
854 11 1 16.258 29.185  6.167 
855 11 1 14.518 30.331  7.052 
856 11 1 12.792 31.087  5.430 
857 11 1 11.328 32.740  3.968 
858 11 1  9.804 32.847  2.152 
859 11 1  7.480 31.730  2.095 
860 11 1  5.251 30.290  2.062 
861 11 1 44.679 28.844  2.143 
862 11 1 42.158 28.196  1.910 
863 11 1 39.666 27.802  1.458 
864 11 1 37.576 27.738  2.331 
865 11 1 35.572 27.413  3.375 
866 11 1 33.190 26.468  3.755 
867 11 1 30.626 25.940  4.223 
868 11 1 28.133 25.591  4.645 
869 11 1 25.636 25.449  5.045 
870 11 1 24.256 24.845  3.056 
871 11 1 22.774 23.839  1.215 
872 11 1 21.258 22.707 -0.644 
873 11 1 21.391 20.452 -1.964 
874 11 1 21.349 18.320 -3.265 
875 11 1 20.947 16.077 -4.404 
876 11 1 20.076 13.831 -5.396 
877 11 1 19.838 11.836 -6.633 
878 11 1 20.406  9.520 -7.764 
879 11 1 19.661  7.597 -8.858 
880 11 1 19.275  7.035 55.094 
881 11 1 17.945  8.312 53.209 
882 11 1 16.752  9.566 51.353 
883 11 1 15.867 11.508 50.507 
884 11 1 16.364 13.969 50.595 
885 11 1 15.832 15.698 52.467 
886 11 1 17.591 16.719 54.165 
887 11 1 19.281 17.635 55.878 
888 11 1 20.599 19.851 56.012 
889 11 1 22.354 20.325 57.802 
890 11 1 23.778 21.273 -6.780 
891 11 1 24.932 21.855 -4.716 
892 11 1 25.740 22.813 -2.608 
893 11 1 26.777 24.598 -0.984 
894 11 1 28.556 25.433  0.185 
895 11 1 30.609 26.509 -0.810 
896 11 1 32.932 27.035 -1.832 
897 11 1 35.265 27.034 -2.851 
898 11 1 37.546 26.969 -3.977 
899 11 1 39.845 27.173 -5.034 
900 11 1 42.099 27.547 -6.021 
901 11 1 44.313 26.124 -6.179 
902 11 1  4.986 24.980 -5.750 
903 11 1  7.272 23.740 -5.223 
904 11 1  9.346 24.746 -4.746 
905 11 1 11.417 25.699 -4.393 
906 11 1 13.358 26.592 -2.876 
907 11 1 13.640 26.514 -0.354 
908 11 1 13.444 26.234  2.045 
909 12 1 42.957  9.510 -3.991 
910 12 1 40.938 10.941 -4.384 
911 12 1 38.953 12.444 -4.848 
912 12 1 37.127 14.171 -4.733 
913 12 1 35.238 15.973 -4.576 
914 12 1 33.607 18.017 -4.184 
915 12 1 31.973 19.655 -3.278 
916 12 1 30.179 19.813 -1.714 
917 12 1 28.075 19.169 -0.467 
918 12 1 25.959 18.636  0.986 
919 12 1 23.528 18.210  1.844 
920 12 1 21.497 19.048  2.602 
921 12 1 21.376 20.897  4.405 
922 12 1 21.453 22.746  6.079 
923 12 1 21.481 23.392  8.377 
924 12 1 21.134 23.553 10.901 
925 12 1 20.563 23.653 13.290 
926 12 1 20.556 21.939 15.192 
927 12 1 20.463 20.193 17.112 
928 12 1 20.682 18.754 19.162 
929 12 1 20.505 19.100 21.742 
930 12 1 20.495 19.509 24.249 
931 12 1 20.189 20.145 26.708 
932 12 1 20.411 21.282 28.798 
933 12 1 21.620 22.243 30.869 
934 12 1 21.967 23.661 32.736 
935 12 1 21.350 25.828 33.893 
936 12 1 20.819 28.077 35.110 
937 12 1 19.946 30.282 36.168 
938 12 1 17.875 31.511 35.253 
939 12 1 15.643 31.865 34.470 
940 12 1 13.581 30.956 34.852 
941 12 1 11.544 30.433 35.875 
942 12 1  9.075 30.645 36.436 
943 12 1  8.126 30.924 38.811 
944 12 1  8.036 32.881 40.395 
945 12 1  9.130 34.696 41.441 
946 12 1 10.813 36.570 41.982 
947 12 1 11.374 38.101 40.234 
948 12 1 10.746 39.255 37.987 
949 12 1  9.891 40.464 35.825 
950 12 1  8.523 39.780 33.823 
951 12 1  7.076 39.162 31.869 
952 12 1  7.624 37.181 30.366 
953 12 1  7.422 35.260 28.799 
954 12 1  7.338 33.365 27.099 
955 12 1  7.958 31.396 25.746 
956 12 1  8.889 29.149 25.116 
957 12 1 11.376 28.586 24.828 
958 12 1 12.237 26.289 25.687 
959 12 1 13.838 25.250 27.418 
960 12 1 15.566 24.154 29.055 
961 12 1 16.221 23.269 31.067 
962 12 1 16.849 22.482 33.086 
963 12 1 17.615 22.065 35.116 
964 12 1 18.192 22.648 37.337 
965 12 1 19.832 23.683 39.062 
966 12 1 21.889 25.096 38.580 
967 12 1 24.040 26.358 38.092 
968 12 1 24.318 28.606 36.814 
969 12 1 24.671 29.970 34.959 
970 12 1 24.466 31.242 33.038 
971 12 1 22.923 30.604 31.399 
972 12 1 21.398 29.268 30.265 
973 12 1 19.598 27.484 29.896 
974 12 1 17.421 28.058 30.094 
975 12 1 15.440 29.262 29.068 
976 12 1 13.507 30.564 28.968 
977 12 1 11.353 31.720 29.771 
978 12 1 11.100 33.987 30.929 
979 12 1 10.663 34.978 33.360 
980 12 1 10.868 35.343 35.702 
981 12 1 12.151 34.661 37.784 
982 12 1 13.748 33.867 39.585 
983 12 1 15.460 33.534 41.377 
984 12 1 17.173 33.148 43.274 
985 12 1 18.627 34.675 44.798 
986 12 1 21.127 35.066 45.133 