LAMMPS data file generated by aa2cg.

2000 atoms
1 atom types
1975 bonds
1 bond types
1950 angles
1 angle types
1925 dihedrals
1 dihedral types

 0.000 54.471 xlo xhi
 0.000 40.151 ylo yhi
 0.000 54.068 zlo zhi

Masses

1 24.022

Atoms # molecular

1 1 1 24.739 16.731  0.349 
2 1 1 19.263 41.800  3.693 
3 2 1 34.541 44.423  9.603 
4 2 1  7.536 34.774 11.660 
5 3 1 17.888 27.466 34.596 
6 3 1 41.277 13.069 38.049 
7 4 1 20.943 10.785 23.611 
8 4 1 23.808 11.563 19.412 
9 5 1 32.616 20.010 44.232 
10 5 1 39.851 29.008 13.112 
11 6 1  8.997 26.311 33.440 
12 6 1 30.184 27.763  0.008 
13 7 1 15.290 44.802  6.077 
14 7 1 35.090 23.530 45.664 
15 8 1 32.189 25.587 37.163 
16 8 1 17.676 27.983 30.047 
17 9 1  4.741 36.327 18.064 
18 9 1 27.680 27.293 30.488 
19 10 1 48.133 34.575 44.882 
20 10 1  2.860 36.706 47.137 
21 11 1 20.065 28.823 37.630 
22 11 1 -2.195  8.595  5.074 
23 12 1 22.443 21.635 16.104 
24 12 1 46.102 24.545 18.635 
25 13 1 40.324 30.205 46.370 
26 13 1 46.197 26.334  9.217 
27 14 1 11.710 14.430  1.017 
28 14 1 13.663 29.527 31.673 
29 15 1 51.096 19.509 36.612 
30 15 1 36.874 41.343 38.330 
31 16 1 37.380 12.659 34.966 
32 16 1 16.301 29.606 -1.663 
33 17 1 34.052 32.866 15.203 
34 17 1 43.989 41.218 19.384 
35 18 1 37.627 34.365 16.714 
36 18 1 48.080 25.184 28.882 
37 19 1 37.686 23.483 11.619 
38 19 1  9.032 32.499 15.886 
39 20 1 29.381  9.126 47.393 
40 20 1 26.174 27.843 45.321 
41 21 1 27.943 26.731 39.795 
42 21 1 48.323 17.909 27.693 
43 22 1 50.214 33.505  4.066 
44 22 1 44.156 36.896  4.510 
45 23 1 28.563  6.200 27.401 
46 23 1 24.258 19.092 32.738 
47 24 1 10.951 36.644 30.606 
48 24 1  6.705 17.887 13.348 
49 25 1 11.892  4.742 45.813 
50 25 1 36.845  7.979 36.432 
51 1 1 24.046 14.789 -1.242 
52 1 1 23.483 12.956 51.023 
53 1 1 24.616 10.820 50.329 
54 1 1 23.491  9.127 48.670 
55 1 1 24.550  7.090 47.617 
56 1 1 25.248  4.891 46.455 
57 1 1 25.539 43.000 44.967 
58 1 1 25.952 41.797 42.907 
59 1 1 27.097 41.816 40.539 
60 1 1 28.814 43.545 39.716 
61 1 1 28.501  5.501 38.312 
62 1 1 27.415  7.033 37.063 
63 1 1 25.325  7.970 35.787 
64 1 1 24.442  7.497 33.409 
65 1 1 23.606  6.706 31.186 
66 1 1 22.668  5.709 28.959 
67 1 1 21.617  4.451 26.953 
68 1 1 20.370  5.492 25.109 
69 1 1 19.126  6.465 23.354 
70 1 1 17.202  6.841 21.726 
71 1 1 15.212  7.420 20.175 
72 1 1 13.090  5.895 19.867 
73 1 1 11.220  4.249 19.804 
74 1 1  9.161 43.985 21.315 
75 1 1  7.026 44.002 22.839 
76 1 1  5.167 44.350 24.589 
77 1 1  3.400  4.604 26.530 
78 1 1  1.789  5.710 28.278 
79 1 1  1.646  7.378 30.002 
80 1 1  2.209  9.355 31.671 
81 1 1  2.639 10.806 33.752 
82 1 1  2.706 12.210 35.921 
83 1 1  4.802 12.412 36.879 
84 1 1  7.061 11.438 37.673 
85 1 1  7.634  8.916 37.479 
86 1 1  7.667  6.339 37.316 
87 1 1  7.377  3.872 37.452 
88 1 1  6.911 41.534 37.983 
89 1 1  6.309 39.093 38.524 
90 1 1  6.052 36.563 38.726 
91 1 1  5.360 34.073 39.098 
92 1 1  4.674 31.549 39.491 
93 1 1  6.242 29.918 40.661 
94 1 1  7.771 29.702 42.448 
95 1 1  9.122 29.570 44.447 
96 1 1 10.773 27.959 45.554 
97 1 1 12.360 26.153 46.623 
98 1 1 12.245 24.834 48.836 
99 1 1 12.388 23.543 51.073 
100 1 1 12.737 22.250 -0.856 
101 1 1 12.744 21.053  1.369 
102 1 1 12.422 20.128  3.682 
103 1 1 12.499 19.067  6.028 
104 1 1 13.205 16.658  6.751 
105 1 1 13.907 14.170  7.322 
106 1 1 14.952 11.881  7.739 
107 1 1 16.210  9.693  8.219 
108 1 1 17.496  7.570  8.841 
109 1 1 18.893  5.678  9.799 
110 1 1 17.801 43.794 10.356 
111 1 1 16.543 41.693 10.121 
112 1 1 16.373 39.800  8.279 
113 1 1 15.935 37.916  6.513 
114 1 1 15.499 36.170  4.617 
115 1 1 14.957 34.727  2.573 
116 1 1 14.313 33.500  0.452 
117 1 1 12.753 32.969 -1.109 
118 1 1 10.279 32.909 -2.102 
119 1 1  8.555 34.059 50.895 
120 1 1  7.350 35.917 49.772 
121 1 1  6.314 38.007 48.689 
122 1 1  6.828 40.429 49.633 
123 1 1  8.032 42.368 50.851 
124 1 1  9.802 43.110 -1.818 
125 1 1 11.789 42.924 -0.296 
126 1 1 13.691 42.545  1.358 
127 1 1 14.696 40.661  2.898 
128 1 1 17.223 40.705  3.580 
129 2 1 35.746  5.434 11.501 
130 2 1 36.102 43.912 13.157 
131 2 1 35.204 44.051 15.629 
132 2 1 33.072  4.252 16.951 
133 2 1 31.225 43.153 16.317 
134 2 1 30.128 42.025 14.392 
135 2 1 29.661 40.648 12.275 
136 2 1 28.284 39.859 10.597 
137 2 1 26.040 39.569  9.512 
138 2 1 23.821 39.706  8.229 
139 2 1 22.642 41.952  7.512 
140 2 1 21.508 44.157  6.695 
141 2 1 20.513  5.915  5.338 
142 2 1 19.774  8.037  4.677 
143 2 1 19.317 10.563  5.023 
144 2 1 19.974 12.747  5.127 
145 2 1 21.836 14.462  4.599 
146 2 1 24.349 13.925  4.067 
147 2 1 26.785 13.467  3.490 
148 2 1 28.569 12.929  5.326 
149 2 1 30.454 12.839  7.215 
150 2 1 31.319 14.859  7.795 
151 2 1 31.339 17.374  8.293 
152 2 1 30.542 19.017 10.059 
153 2 1 29.579 20.702 11.780 
154 2 1 27.186 21.490 11.875 
155 2 1 24.757 22.585 12.290 
156 2 1 24.191 24.883 13.197 
157 2 1 23.328 27.195 13.741 
158 2 1 22.434 29.515 13.992 
159 2 1 21.511 31.899 14.238 
160 2 1 19.462 32.900 15.230 
161 2 1 17.524 34.230 16.189 
162 2 1 15.590 35.485 17.316 
163 2 1 13.492 36.357 18.560 
164 2 1 11.406 35.937 19.611 
165 2 1  9.340 35.710 20.680 
166 2 1  7.285 36.099 22.094 
167 2 1  5.459 35.414 23.172 
168 2 1  3.710 33.689 23.836 
169 2 1  1.943 31.998 24.567 
170 2 1  0.767 30.359 22.873 
171 2 1  0.654 29.431 20.723 
172 2 1  1.401 28.875 18.285 
173 2 1  2.036 27.573 16.141 
174 2 1  2.530 25.761 14.386 
175 2 1  1.764 24.213 13.057 
176 2 1 -0.237 22.787 12.247 
177 2 1 -2.386 21.322 11.842 
178 2 1 49.886 21.136 13.246 
179 2 1 47.587 20.808 14.329 
180 2 1 45.131 20.530 15.023 
181 2 1 42.524 20.264 15.183 
182 2 1 39.970 19.936 15.185 
183 2 1 37.490 19.386 14.895 
184 2 1 36.049 17.568 13.607 
185 2 1 34.777 15.895 12.129 
186 2 1 34.010 13.762 10.987 
187 2 1 33.621 11.489 10.013 
188 2 1 32.678  9.608  8.592 
189 2 1 31.543  7.999  6.982 
190 2 1 30.361  6.670  5.114 
191 2 1 29.291  5.175  3.313 
192 2 1 29.042 43.882  1.509 
193 2 1 28.995 42.605 -0.466 
194 2 1 27.988 40.258 -0.058 
195 2 1 27.157 37.866  0.589 
196 2 1 25.776 36.055  1.735 
197 2 1 24.377 34.149  2.710 
198 2 1 22.533 32.359  3.264 
199 2 1 20.386 30.861  3.483 
200 2 1 18.068 30.708  3.850 
201 2 1 15.765 30.321  4.013 
202 2 1 14.017 29.298  5.009 
203 2 1 12.425 28.595  6.969 
204 2 1 11.707 29.521  9.335 
205 2 1 10.385 31.067 10.478 
206 2 1  9.031 33.203 10.705 
207 3 1 15.383 27.976 34.730 
208 3 1 13.671 28.455 36.659 
209 3 1 11.246 29.112 36.267 
210 3 1 10.136 30.794 37.842 
211 3 1 10.354 32.509 39.625 
212 3 1 10.358 33.950 41.426 
213 3 1  9.081 35.413 42.860 
214 3 1  7.421 37.321 43.536 
215 3 1  6.425 39.624 44.094 
216 3 1  6.103 42.089 44.750 
217 3 1  6.510 44.556 45.400 
218 3 1  6.525  6.818 46.138 
219 3 1  6.699  8.407 47.979 
220 3 1  8.737  7.677 49.143 
221 3 1 11.037  6.688 49.865 
222 3 1 13.195  5.841 50.982 
223 3 1 14.270 43.782 50.221 
224 3 1 15.700 41.905 49.338 
225 3 1 17.220 40.200 48.147 
226 3 1 19.025 38.405 47.522 
227 3 1 20.764 37.498 49.203 
228 3 1 22.795 36.398 50.527 
229 3 1 24.745 34.872 51.286 
230 3 1 26.752 33.487 -2.101 
231 3 1 27.849 32.216 -0.466 
232 3 1 28.356 31.200  1.810 
233 3 1 29.297 32.361  3.953 
234 3 1 28.095 32.298  6.116 
235 3 1 26.563 32.385  7.859 
236 3 1 24.744 33.490  9.214 
237 3 1 22.917 34.848 10.443 
238 3 1 20.971 36.265 11.562 
239 3 1 18.678 36.128 11.820 
240 3 1 16.262 35.094 11.434 
241 3 1 15.082 34.294  9.321 
242 3 1 13.535 33.755  7.369 
243 3 1 11.760 33.234  5.432 
244 3 1 10.031 32.860  3.465 
245 3 1  8.075 32.700  1.702 
246 3 1  5.719 33.080  0.571 
247 3 1  4.352 32.458 -1.535 
248 3 1  3.073 31.690 50.515 
249 3 1  1.484 30.976 48.688 
250 3 1 -0.025 30.292 46.843 
251 3 1 -1.492 30.376 44.928 
252 3 1 -2.776 31.316 42.955 
253 3 1 50.878 32.399 40.784 
254 3 1 51.013 32.699 38.489 
255 3 1 51.218 33.158 36.257 
256 3 1 49.055 33.603 34.854 
257 3 1 47.049 34.092 33.194 
258 3 1 44.961 34.571 31.841 
259 3 1 44.305 37.101 31.394 
260 3 1 41.934 38.081 30.826 
261 3 1 39.624 38.964 30.177 
262 3 1 37.355 39.502 30.565 
263 3 1 35.160 39.229 31.793 
264 3 1 32.908 38.718 32.826 
265 3 1 30.704 38.246 34.061 
266 3 1 28.626 38.063 35.451 
267 3 1 28.133 37.088 37.864 
268 3 1 28.657 35.921 39.811 
269 3 1 29.239 33.543 39.853 
270 3 1 31.446 32.812 40.902 
271 3 1 32.016 34.110 42.875 
272 3 1 32.739 36.417 43.953 
273 3 1 32.916 38.610 42.715 
274 3 1 33.083 40.911 41.637 
275 3 1 33.350 43.431 41.044 
276 3 1 33.620  5.810 40.455 
277 3 1 33.451  8.251 39.737 
278 3 1 33.162 10.828 39.195 
279 3 1 32.834 13.296 38.524 
280 3 1 32.425 15.829 38.082 
281 3 1 33.820 17.835 37.468 
282 3 1 36.001 18.338 36.608 
283 3 1 37.795 16.695 37.290 
284 3 1 39.419 14.786 37.735 
285 4 1 19.242 11.730 25.307 
286 4 1 19.153 13.437 27.290 
287 4 1 19.280 15.036 29.292 
288 4 1 19.053 16.505 31.407 
289 4 1 18.259 17.561 33.620 
290 4 1 17.163 19.175 34.832 
291 4 1 15.890 21.398 34.857 
292 4 1 14.214 23.365 34.718 
293 4 1 12.739 23.946 32.620 
294 4 1 11.822 23.645 30.468 
295 4 1 10.215 21.923 29.518 
296 4 1  8.465 20.219 28.999 
297 4 1  8.704 17.659 29.218 
298 4 1 10.236 16.056 27.872 
299 4 1 12.235 15.129 26.942 
300 4 1 13.881 14.034 28.547 
301 4 1 14.719 12.442 29.883 
302 4 1 13.076 12.000 31.794 
303 4 1 11.060 10.487 32.168 
304 4 1  8.810  9.561 32.163 
305 4 1  7.079 11.128 30.900 
306 4 1  5.997 11.968 28.966 
307 4 1  5.133 10.393 27.022 
308 4 1  4.562  8.762 25.091 
309 4 1  5.957  8.001 22.977 
310 4 1  7.711  7.936 21.496 
311 4 1  9.817  8.878 20.510 
312 4 1 10.480 10.964 19.149 
313 4 1 11.438 12.987 17.903 
314 4 1 12.505 15.290 17.060 
315 4 1 14.949 16.214 17.290 
316 4 1 16.190 17.303 19.339 
317 4 1 18.666 17.795 19.262 
318 4 1 20.870 17.841 18.488 
319 4 1 22.808 17.039 16.980 
320 4 1 24.694 16.416 15.297 
321 4 1 26.310 15.709 13.425 
322 4 1 28.150 15.608 11.806 
323 4 1 29.064 13.435 12.401 
324 4 1 28.857 11.764 10.402 
325 4 1 27.013  9.909 10.254 
326 4 1 25.160  8.066 10.079 
327 4 1 25.252  5.649 10.902 
328 4 1 25.749 44.170 12.436 
329 4 1 26.037 43.580 14.952 
330 4 1 26.128 42.705 17.317 
331 4 1 27.333 43.851 19.276 
332 4 1 26.382  5.059 21.120 
333 4 1 25.501  6.200 23.303 
334 4 1 24.939  7.765 25.249 
335 4 1 24.033  9.340 27.200 
336 4 1 23.295 11.285 28.556 
337 4 1 23.198 13.697 29.254 
338 4 1 25.298 15.043 29.608 
339 4 1 27.464 16.548 29.984 
340 4 1 29.569 17.981 29.952 
341 4 1 31.504 18.780 29.025 
342 4 1 32.999 19.189 26.878 
343 4 1 34.530 19.653 24.821 
344 4 1 36.033 20.413 22.844 
345 4 1 37.697 20.873 20.939 
346 4 1 39.716 20.904 19.917 
347 4 1 42.312 20.851 20.208 
348 4 1 44.795 20.442 21.032 
349 4 1 46.841 20.182 22.659 
350 4 1 45.938 19.462 24.623 
351 4 1 44.342 18.369 25.743 
352 4 1 43.452 16.688 26.890 
353 4 1 42.371 15.516 28.508 
354 4 1 40.607 14.121 29.087 
355 4 1 39.222 11.939 28.671 
356 4 1 37.395 10.213 28.089 
357 4 1 35.158  9.159 27.331 
358 4 1 32.983  8.229 26.236 
359 4 1 31.522  9.276 24.386 
360 4 1 29.018  8.797 23.583 
361 4 1 27.641  9.661 21.499 
362 4 1 26.215 10.620 19.432 
363 5 1 32.317 17.727 43.059 
364 5 1 32.326 15.351 42.739 
365 5 1 33.088 12.777 43.009 
366 5 1 33.448 10.334 43.782 
367 5 1 33.935  7.883 43.949 
368 5 1 34.497  5.440 44.625 
369 5 1 34.946 43.219 45.491 
370 5 1 35.451 40.824 46.121 
371 5 1 35.694 38.406 47.013 
372 5 1 35.509 36.109 47.910 
373 5 1 36.147 33.634 48.251 
374 5 1 36.103 31.207 49.216 
375 5 1 37.115 30.430 51.433 
376 5 1 38.040 29.535 -0.409 
377 5 1 39.172 28.875  1.843 
378 5 1 40.523 28.183  3.887 
379 5 1 41.245 27.680  6.349 
380 5 1 39.473 26.679  7.395 
381 5 1 36.973 25.801  7.452 
382 5 1 34.421 25.446  7.451 
383 5 1 32.233 25.080  8.435 
384 5 1 30.670 24.935 10.605 
385 5 1 29.503 25.090 12.883 
386 5 1 28.364 25.710 15.138 
387 5 1 27.085 27.204 16.936 
388 5 1 25.707 28.276 18.830 
389 5 1 24.629 30.001 20.415 
390 5 1 23.211 31.583 21.681 
391 5 1 21.871 33.410 22.895 
392 5 1 20.577 34.923 24.507 
393 5 1 18.990 36.609 25.679 
394 5 1 17.193 38.361 26.455 
395 5 1 15.100 39.752 27.063 
396 5 1 12.857 40.911 27.745 
397 5 1 12.599 40.992 30.133 
398 5 1 13.359 40.691 32.578 
399 5 1 14.424 39.907 34.800 
400 5 1 15.320 38.979 36.921 
401 5 1 16.358 37.768 38.951 
402 5 1 17.999 38.620 40.743 
403 5 1 19.540 39.317 42.688 
404 5 1 20.545 40.617 44.434 
405 5 1 20.965 42.493 45.955 
406 5 1 21.355 41.980 48.505 
407 5 1 22.104 41.306 50.877 
408 5 1 23.104 40.385 -1.033 
409 5 1 22.696 39.165  1.150 
410 5 1 21.615 37.885  3.171 
411 5 1 20.506 36.283  4.889 
412 5 1 19.535 34.722  6.587 
413 5 1 19.220 32.870  7.861 
414 5 1 19.905 30.684  8.327 
415 5 1 21.589 28.930  8.849 
416 5 1 23.392 27.284  9.518 
417 5 1 25.977 27.471  9.489 
418 5 1 27.005 26.790  7.504 
419 5 1 29.028 27.297  6.461 
420 5 1 29.794 25.731  4.487 
421 5 1 32.098 25.580  3.291 
422 5 1 34.360 25.464  1.949 
423 5 1 36.448 25.524  0.491 
424 5 1 38.267 24.174  1.046 
425 5 1 38.651 22.691  2.809 
426 5 1 38.327 20.909  4.626 
427 5 1 36.690 20.905  6.595 
428 5 1 35.329 20.966  8.710 
429 5 1 34.237 21.183 11.124 
430 5 1 33.643 21.404 13.644 
431 5 1 32.861 22.336 15.850 
432 5 1 31.878 23.994 17.643 
433 5 1 30.501 25.162 19.521 
434 5 1 29.218 26.595 21.245 
435 5 1 30.177 28.729 21.552 
436 5 1 32.079 30.507 21.949 
437 5 1 33.944 29.126 21.607 
438 5 1 34.895 29.172 19.223 
439 5 1 36.401 29.340 17.116 
440 5 1 38.120 29.426 15.104 
441 6 1  7.823 26.194 31.136 
442 6 1  6.511 26.234 28.927 
443 6 1  5.942 24.069 28.237 
444 6 1  4.431 21.941 28.297 
445 6 1  3.254 19.665 28.719 
446 6 1  3.053 17.524 27.753 
447 6 1  3.094 15.521 26.224 
448 6 1  2.926 13.415 24.641 
449 6 1  4.184 12.955 22.484 
450 6 1  5.136 12.603 20.124 
451 6 1  5.890 12.347 17.688 
452 6 1  4.983 10.399 16.938 
453 6 1  4.100  8.359 16.190 
454 6 1  2.777  6.837 14.526 
455 6 1  0.621  7.519 13.239 
456 6 1 -0.802  9.288 12.598 
457 6 1 -2.092 11.088 11.901 
458 6 1 50.526 12.096 10.484 
459 6 1 48.399 12.686  9.048 
460 6 1 46.252 12.820  8.410 
461 6 1 43.814 11.762  8.395 
462 6 1 41.389 11.054  8.433 
463 6 1 38.891 10.374  8.154 
464 6 1 38.851  8.310  6.854 
465 6 1 40.324  6.536  6.273 
466 6 1 41.614  4.427  6.561 
467 6 1 42.927 42.458  6.852 
468 6 1 45.194 42.127  7.994 
469 6 1 47.582 41.673  8.856 
470 6 1 49.983 41.081  9.064 
471 6 1 -2.083 40.276  9.066 
472 6 1  0.276 39.384  8.530 
473 6 1  2.520 38.430  7.621 
474 6 1  3.963 37.903  5.920 
475 6 1  2.719 38.667  3.710 
476 6 1  0.745 39.427  2.113 
477 6 1 -1.319 40.354  0.807 
478 6 1 -3.216 41.573 -0.515 
479 6 1 49.258 42.758 -1.730 
480 6 1 47.253 43.940 -2.921 
481 6 1 45.428  4.975 49.737 
482 6 1 45.574  6.620 48.174 
483 6 1 46.248  8.204 46.663 
484 6 1 47.035  9.043 44.429 
485 6 1 48.483 10.343 43.304 
486 6 1 49.929 12.325 42.829 
487 6 1 51.326 14.442 42.450 
488 6 1 50.400 16.790 42.592 
489 6 1 49.199 18.386 41.438 
490 6 1 47.752 19.529 39.577 
491 6 1 46.428 20.757 37.642 
492 6 1 45.109 21.955 35.793 
493 6 1 44.513 23.682 34.388 
494 6 1 43.901 25.812 33.602 
495 6 1 42.133 27.585 33.420 
496 6 1 40.371 29.363 33.261 
497 6 1 39.344 30.875 35.144 
498 6 1 39.147 31.633 37.308 
499 6 1 39.465 31.682 39.882 
500 6 1 39.241 29.592 41.367 
501 6 1 39.298 27.424 42.651 
502 6 1 39.500 24.884 43.276 
503 6 1 41.478 23.310 42.639 
504 6 1 41.895 22.059 40.410 
505 6 1 41.186 21.503 38.326 
506 6 1 39.486 21.333 36.476 
507 6 1 37.617 21.517 34.650 
508 6 1 35.718 21.933 33.047 
509 6 1 33.233 21.852 33.705 
510 6 1 30.647 21.710 33.729 
511 6 1 30.413 19.758 35.220 
512 6 1 30.200 20.673 37.572 
513 6 1 29.965 21.612 40.038 
514 6 1 29.811 22.728 42.331 
515 6 1 29.649 23.908 44.553 
516 6 1 29.578 24.934 46.908 
517 6 1 29.680 26.098 49.224 
518 6 1 29.846 27.087 51.645 
519 7 1 13.976  6.786  5.429 
520 7 1 12.693  8.885  5.043 
521 7 1 11.687 11.216  4.617 
522 7 1 10.412 13.503  4.669 
523 7 1  9.426 15.824  4.360 
524 7 1  8.032 17.764  4.489 
525 7 1  6.253 19.435  5.497 
526 7 1  5.166 21.366  6.540 
527 7 1  5.360 22.066  9.030 
528 7 1  5.898 22.753 11.449 
529 7 1  6.667 23.221 13.832 
530 7 1  7.546 23.963 16.133 
531 7 1  6.274 25.491 17.839 
532 7 1  6.803 25.470 20.424 
533 7 1  7.303 24.659 22.833 
534 7 1  8.573 23.349 24.206 
535 7 1 10.154 21.391 24.819 
536 7 1 11.356 19.217 25.402 
537 7 1 12.998 18.077 23.805 
538 7 1 12.433 15.951 22.460 
539 7 1 13.259 13.544 22.989 
540 7 1 15.139 12.391 21.585 
541 7 1 17.241 12.426 20.506 
542 7 1 18.977 13.000 18.629 
543 7 1 20.475 13.651 16.602 
544 7 1 21.523 13.755 14.296 
545 7 1 22.720 13.629 12.056 
546 7 1 23.827 13.085  9.758 
547 7 1 23.605 11.618  7.983 
548 7 1 23.789  9.675  6.604 
549 7 1 25.009  7.795  5.213 
550 7 1 26.021  5.796  6.286 
551 7 1 27.425 44.215  7.636 
552 7 1 29.451  4.455  9.217 
553 7 1 30.132  5.265 11.193 
554 7 1 29.787  6.312 13.562 
555 7 1 27.925  7.726 14.567 
556 7 1 26.227  9.370 15.031 
557 7 1 23.859  8.870 14.037 
558 7 1 21.350  8.384 13.387 
559 7 1 20.193  9.730 11.511 
560 7 1 19.392 11.698 10.030 
561 7 1 18.967 13.940  8.878 
562 7 1 18.800 16.364  8.031 
563 7 1 19.020 18.801  7.079 
564 7 1 19.139 21.075  8.191 
565 7 1 19.977 22.894  9.760 
566 7 1 19.747 24.337 11.628 
567 7 1 18.439 25.667 13.472 
568 7 1 17.316 26.869 15.410 
569 7 1 15.919 28.371 17.009 
570 7 1 14.621 30.001 18.615 
571 7 1 13.476 31.797 19.959 
572 7 1 12.250 31.367 22.116 
573 7 1 11.733 30.237 24.010 
574 7 1 10.578 27.925 23.462 
575 7 1 11.520 26.128 21.853 
576 7 1 12.184 24.807 19.771 
577 7 1 12.496 23.663 17.483 
578 7 1 13.064 22.666 15.221 
579 7 1 12.403 20.272 14.296 
580 7 1 11.710 17.978 13.283 
581 7 1 13.255 16.156 12.184 
582 7 1 14.918 14.515 12.327 
583 7 1 17.212 15.744 12.611 
584 7 1 19.081 17.380 13.332 
585 7 1 20.782 18.878 12.761 
586 7 1 22.389 18.242 10.777 
587 7 1 24.060 17.998  8.752 
588 7 1 25.674 17.606  6.838 
589 7 1 27.483 17.273  5.117 
590 7 1 29.097 17.340  3.066 
591 7 1 29.502 19.317  1.482 
592 7 1 30.499 21.089 -0.073 
593 7 1 32.015 22.450 -1.642 
594 7 1 33.541 24.087 -2.896 
595 7 1 35.218 25.609 49.972 
596 7 1 35.191 24.934 47.599 
597 8 1 31.114 27.766 36.551 
598 8 1 29.782 29.790 35.771 
599 8 1 28.051 31.525 35.055 
600 8 1 26.659 33.429 34.364 
601 8 1 25.541 35.560 33.473 
602 8 1 24.473 37.701 32.616 
603 8 1 25.532 39.661 31.402 
604 8 1 24.202 41.459 31.633 
605 8 1 22.989 43.014 33.228 
606 8 1 21.265 44.404 34.206 
607 8 1 19.102  5.620 34.127 
608 8 1 16.920  6.993 34.250 
609 8 1 15.419  8.427 35.230 
610 8 1 14.607 10.217 36.807 
611 8 1 14.164 11.994 38.710 
612 8 1 15.398 12.352 40.925 
613 8 1 16.315 12.412 43.258 
614 8 1 17.155 12.171 45.657 
615 8 1 18.011 11.707 48.064 
616 8 1 18.769 11.256 50.504 
617 8 1 20.080 10.928 -1.319 
618 8 1 21.583 10.798  0.792 
619 8 1 23.611 10.123  1.654 
620 8 1 25.841 10.557  0.375 
621 8 1 27.129  8.757 -1.065 
622 8 1 27.600  6.924 51.470 
623 8 1 27.298  4.650 50.215 
624 8 1 26.932 42.385 49.406 
625 8 1 26.362 40.159 48.286 
626 8 1 25.241 38.229 46.879 
627 8 1 24.351 36.133 45.681 
628 8 1 21.989 35.443 45.223 
629 8 1 19.614 34.665 44.670 
630 8 1 17.465 35.140 44.667 
631 8 1 15.359 36.598 45.145 
632 8 1 15.128 38.950 44.247 
633 8 1 15.322 41.436 43.581 
634 8 1 16.307 43.820 43.263 
635 8 1 17.538  5.988 43.369 
636 8 1 19.353  7.688 44.034 
637 8 1 20.395  9.927 44.401 
638 8 1 21.762 11.929 45.213 
639 8 1 23.139 13.823 46.284 
640 8 1 24.510 15.749 47.303 
641 8 1 24.245 17.584 49.072 
642 8 1 23.386 19.173 50.543 
643 8 1 22.215 20.727 51.853 
644 8 1 21.851 22.857 -0.827 
645 8 1 21.181 24.981  0.415 
646 8 1 19.771 26.806  0.465 
647 8 1 20.908 27.784 -1.545 
648 8 1 20.683 27.303 50.012 
649 8 1 21.029 26.944 47.482 
650 8 1 21.564 26.368 44.991 
651 8 1 21.682 25.537 42.553 
652 8 1 21.780 24.807 40.056 
653 8 1 21.641 24.035 37.580 
654 8 1 20.645 23.270 35.350 
655 8 1 19.693 22.759 33.016 
656 8 1 19.381 22.450 30.482 
657 8 1 19.336 20.360 28.945 
658 8 1 21.423 19.329 27.724 
659 8 1 23.639 18.489 26.739 
660 8 1 25.930 17.624 26.094 
661 8 1 28.346 16.705 25.436 
662 8 1 30.675 15.868 25.110 
663 8 1 31.526 13.661 24.057 
664 8 1 32.445 13.922 21.961 
665 8 1 31.080 12.695 20.150 
666 8 1 29.811 13.675 18.189 
667 8 1 28.042 15.126 18.743 
668 8 1 26.665 16.912 20.109 
669 8 1 24.992 18.304 21.361 
670 8 1 23.106 19.810 22.184 
671 8 1 21.404 21.318 23.258 
672 8 1 20.046 22.966 24.701 
673 8 1 19.203 24.635 26.480 
674 8 1 18.169 26.216 28.196 
675 9 1  2.317 37.240 18.202 
676 9 1  0.277 37.704 17.330 
677 9 1 -1.253 37.410 15.282 
678 9 1 -3.111 37.328 13.474 
679 9 1 51.099 36.456 11.108 
680 9 1 50.360 35.384  8.906 
681 9 1 48.107 36.075  7.686 
682 9 1 46.090 35.654  8.841 
683 9 1 46.249 36.749 11.175 
684 9 1 46.230 38.092 13.418 
685 9 1 46.150 40.662 13.441 
686 9 1 45.450 43.176 13.244 
687 9 1 45.452  5.127 14.799 
688 9 1 43.729  5.920 16.596 
689 9 1 42.359  6.713 18.625 
690 9 1 40.989  7.261 20.667 
691 9 1 39.687  7.155 22.812 
692 9 1 38.053  6.330 24.352 
693 9 1 36.087  4.821 25.065 
694 9 1 34.583 43.953 26.487 
695 9 1 33.364 43.916 28.722 
696 9 1 34.280  5.124 30.735 
697 9 1 35.887  5.697 32.304 
698 9 1 38.243  5.355 33.364 
699 9 1 40.799  5.080 33.808 
700 9 1 43.268  4.723 33.997 
701 9 1 45.221  4.785 35.310 
702 9 1 46.879  5.782 36.954 
703 9 1 48.482  6.247 38.899 
704 9 1 50.081  6.138 41.036 
705 9 1 51.623  7.912 41.461 
706 9 1 -1.146  9.881 40.988 
707 9 1  0.595 11.619 40.355 
708 9 1  0.450 13.902 39.272 
709 9 1  0.197 16.290 39.276 
710 9 1 -0.523 18.625 40.150 
711 9 1  0.966 20.546 41.118 
712 9 1  2.122 20.707 43.423 
713 9 1  3.068 21.114 45.759 
714 9 1  3.690 21.490 48.238 
715 9 1  3.237 20.542 50.307 
716 9 1  2.270 18.562 51.861 
717 9 1  0.536 16.701 51.196 
718 9 1 -1.782 16.180 -1.677 
719 9 1 50.251 15.804 -0.932 
720 9 1 47.729 15.823 -0.492 
721 9 1 45.989 13.954 -0.676 
722 9 1 45.395 11.791 -1.064 
723 9 1 46.465  9.455 -1.167 
724 9 1 47.248  7.532 -0.255 
725 9 1 48.504  6.107  1.447 
726 9 1 50.106  4.969  2.996 
727 9 1 51.516 43.857  4.715 
728 9 1 51.809  4.426  7.107 
729 9 1 -2.786  5.450  9.250 
730 9 1 49.930  6.639 10.764 
731 9 1 47.891  7.969 11.886 
732 9 1 45.671  9.228 12.512 
733 9 1 43.354 10.142 13.154 
734 9 1 41.875 11.103 14.646 
735 9 1 40.717 11.083 16.539 
736 9 1 38.565 10.952 17.526 
737 9 1 36.357 12.098 18.196 
738 9 1 34.553 13.394 16.871 
739 9 1 32.685 15.027 15.944 
740 9 1 31.111 17.010 15.090 
741 9 1 29.787 18.806 16.539 
742 9 1 28.597 20.660 17.707 
743 9 1 27.095 22.423 19.049 
744 9 1 25.585 23.917 20.442 
745 9 1 24.043 25.465 21.823 
746 9 1 22.661 26.958 23.318 
747 9 1 21.805 28.576 25.027 
748 9 1 20.657 30.203 26.634 
749 9 1 21.899 31.963 27.397 
750 9 1 23.842 32.677 29.012 
751 9 1 25.655 31.275 30.112 
752 9 1 26.745 29.373 30.336 
753 10 1 47.117 36.732 45.417 
754 10 1 45.357 38.236 45.617 
755 10 1 43.692 39.671 45.211 
756 10 1 42.742 41.714 45.187 
757 10 1 41.968 44.043 45.793 
758 10 1 40.891  6.252 46.217 
759 10 1 39.397  8.276 46.470 
760 10 1 37.789 10.338 46.882 
761 10 1 36.251 12.378 47.395 
762 10 1 37.710 13.861 48.673 
763 10 1 39.367 14.780 49.974 
764 10 1 40.720 14.977 -1.875 
765 10 1 41.689 16.227 -0.161 
766 10 1 42.617 18.200  1.254 
767 10 1 44.949 19.343  0.920 
768 10 1 47.336 20.328  0.859 
769 10 1 49.700 21.197  1.327 
770 10 1 51.825 21.860  0.795 
771 10 1 -0.822 21.707 -1.024 
772 10 1 -1.030 21.083 50.516 
773 10 1 -0.688 20.402 47.963 
774 10 1 -1.187 20.068 45.536 
775 10 1 51.273 21.430 44.837 
776 10 1 49.013 21.987 43.901 
777 10 1 46.667 22.365 42.955 
778 10 1 45.852 23.722 40.818 
779 10 1 45.200 25.014 38.662 
780 10 1 43.203 26.657 38.337 
781 10 1 40.691 26.711 37.740 
782 10 1 38.331 26.762 36.657 
783 10 1 36.246 26.681 35.050 
784 10 1 34.598 26.372 33.124 
785 10 1 32.856 25.992 31.410 
786 10 1 32.006 27.299 29.306 
787 10 1 31.208 29.055 27.620 
788 10 1 31.692 31.178 26.762 
789 10 1 33.146 32.900 27.139 
790 10 1 34.778 34.425 28.404 
791 10 1 35.765 34.349 30.798 
792 10 1 35.552 33.579 32.840 
793 10 1 34.959 30.996 32.571 
794 10 1 32.746 30.924 32.253 
795 10 1 31.167 32.654 31.572 
796 10 1 29.914 34.249 30.471 
797 10 1 28.097 35.011 28.816 
798 10 1 26.531 36.298 27.341 
799 10 1 26.406 36.550 24.784 
800 10 1 26.024 36.994 22.177 
801 10 1 25.724 37.316 19.707 
802 10 1 27.552 38.363 18.676 
803 10 1 29.983 38.813 17.919 
804 10 1 31.501 37.658 16.234 
805 10 1 32.025 36.632 14.222 
806 10 1 31.285 35.752 11.850 
807 10 1 30.322 34.885  9.606 
808 10 1 29.462 36.316  7.607 
809 10 1 28.332 37.875  5.804 
810 10 1 26.983 39.751  4.673 
811 10 1 25.522 41.599  3.591 
812 10 1 24.001 43.396  2.417 
813 10 1 23.483  5.292  1.426 
814 10 1 23.753  5.109 -0.805 
815 10 1 21.762  5.754 -2.340 
816 10 1 20.380  6.822 49.763 
817 10 1 18.676  5.631 48.719 
818 10 1 16.622  6.835 48.324 
819 10 1 14.894  8.096 46.969 
820 10 1 13.276  9.499 45.527 
821 10 1 11.046  9.812 44.261 
822 10 1  8.705 10.105 43.208 
823 10 1  6.298 10.415 42.319 
824 10 1  4.415  9.428 41.320 
825 10 1  3.198  7.133 40.811 
826 10 1  4.406  4.877 40.604 
827 10 1  3.131 42.773 40.666 
828 10 1  1.999 40.430 40.786 
829 10 1  2.517 38.888 42.526 
830 10 1  2.823 37.893 44.877 
831 11 1 18.973 28.429 39.716 
832 11 1 17.788 26.946 41.499 
833 11 1 16.638 26.626 43.508 
834 11 1 16.991 28.468 45.248 
835 11 1 17.304 30.407 46.859 
836 11 1 17.707 31.911 48.885 
837 11 1 16.501 34.136 49.667 
838 11 1 15.053 36.270 50.183 
839 11 1 14.393 38.676 50.890 
840 11 1 12.489 38.590 -1.756 
841 11 1 10.862 37.858  0.021 
842 11 1  8.918 37.833  1.479 
843 11 1  6.638 37.649  0.292 
844 11 1  4.273 37.094 -0.558 
845 11 1  2.376 36.238 -2.005 
846 11 1  0.313 35.920 -1.090 
847 11 1 -1.665 35.912 -0.090 
848 11 1 50.395 36.719  0.335 
849 11 1 47.882 37.060  0.921 
850 11 1 46.369 38.936  0.052 
851 11 1 44.693 40.709 -0.598 
852 11 1 43.067 42.488 -1.473 
853 11 1 41.831 44.719 51.778 
854 11 1 41.400  7.056 51.317 
855 11 1 41.833  9.163 50.399 
856 11 1 42.853 10.835 48.757 
857 11 1 43.879 12.842 48.285 
858 11 1 43.828 15.398 48.715 
859 11 1 43.407 17.780 49.734 
860 11 1 43.170 19.911 51.050 
861 11 1 42.956 22.276 51.976 
862 11 1 42.667 24.449 -0.757 
863 11 1 42.562 26.662 -0.204 
864 11 1 42.562 29.147 -0.566 
865 11 1 41.953 31.591 -0.669 
866 11 1 41.200 32.791 51.323 
867 11 1 40.660 34.387 49.370 
868 11 1 40.444 36.021 47.448 
869 11 1 40.119 37.527 45.360 
870 11 1 39.705 38.837 43.178 
871 11 1 38.875 41.303 43.020 
872 11 1 38.384 43.824 42.547 
873 11 1 38.368  6.213 42.172 
874 11 1 38.195  8.722 41.942 
875 11 1 37.965 11.235 41.854 
876 11 1 37.807 13.858 42.045 
877 11 1 36.684 15.346 43.601 
878 11 1 36.201 17.142 45.414 
879 11 1 36.221 18.862 47.311 
880 11 1 36.540 20.313 49.405 
881 11 1 36.695 20.504 51.622 
882 11 1 37.138 19.756 -0.009 
883 11 1 37.184 17.464  1.144 
884 11 1 37.779 15.199  2.312 
885 11 1 39.044 13.152  3.388 
886 11 1 40.423 11.227  3.599 
887 11 1 42.087  9.362  2.907 
888 11 1 43.327  7.393  1.837 
889 11 1 44.297  5.365  1.767 
890 11 1 45.146 43.423  2.947 
891 11 1 46.709 41.609  4.030 
892 11 1 48.165 39.720  4.951 
893 11 1 50.700 39.458  4.903 
894 11 1 51.928 37.217  5.028 
895 11 1 -0.774 35.288  4.710 
896 11 1  1.057 33.522  4.037 
897 11 1  1.551 31.254  3.569 
898 11 1  1.256 28.709  3.154 
899 11 1  1.039 26.185  2.889 
900 11 1  0.942 24.292  4.626 
901 11 1  0.722 22.535  6.426 
902 11 1 -0.214 20.109  6.826 
903 11 1 -1.233 17.801  7.068 
904 11 1 -1.512 15.441  6.842 
905 11 1 -0.021 13.659  8.043 
906 11 1  1.681 12.009  9.101 
907 11 1  1.088  9.939  8.311 
908 11 1 -0.792  8.890  7.154 
909 12 1 22.021 23.946 16.872 
910 12 1 21.566 26.353 17.789 
911 12 1 20.519 28.423 18.930 
912 12 1 19.215 30.272 20.077 
913 12 1 17.739 31.979 21.347 
914 12 1 16.247 33.422 22.832 
915 12 1 14.638 34.514 24.514 
916 12 1 12.593 35.575 25.070 
917 12 1 10.486 35.984 25.882 
918 12 1  8.460 36.361 26.798 
919 12 1  6.130 36.164 27.503 
920 12 1  4.349 37.315 28.453 
921 12 1  2.543 37.988 29.697 
922 12 1  0.228 37.884 30.771 
923 12 1 -1.682 37.446 32.417 
924 12 1 50.815 37.941 33.370 
925 12 1 49.759 39.635 34.342 
926 12 1 49.023 40.663 36.703 
927 12 1 48.287 41.405 39.115 
928 12 1 47.304 42.155 41.429 
929 12 1 45.953 43.566 42.609 
930 12 1 44.733  5.596 42.919 
931 12 1 43.003  6.756 41.396 
932 12 1 43.375  7.892 39.106 
933 12 1 41.496  8.540 37.449 
934 12 1 41.432 10.030 35.381 
935 12 1 42.056 10.557 33.248 
936 12 1 43.162 11.242 31.429 
937 12 1 45.182 12.368 30.385 
938 12 1 47.169 12.458 29.290 
939 12 1 49.150 11.598 27.963 
940 12 1 49.281  9.267 26.737 
941 12 1 50.839  7.148 27.188 
942 12 1 -2.550  5.723 25.396 
943 12 1 -1.245  4.764 23.680 
944 12 1  0.785  4.755 22.148 
945 12 1  2.644  4.705 20.447 
946 12 1  4.566  4.591 18.748 
947 12 1  6.437 44.380 16.976 
948 12 1  8.450  5.780 16.345 
949 12 1 10.642  7.131 15.943 
950 12 1 12.908  8.432 16.138 
951 12 1 14.976  9.874 16.389 
952 12 1 17.438  9.144 16.884 
953 12 1 19.765  8.294 17.220 
954 12 1 21.380  7.210 18.391 
955 12 1 21.428  4.977 19.175 
956 12 1 19.111  3.858 18.909 
957 12 1 16.832 42.820 18.688 
958 12 1 14.573 41.551 18.348 
959 12 1 12.212 40.686 17.990 
960 12 1  9.789 39.863 17.716 
961 12 1  7.522 39.727 18.408 
962 12 1  5.393 40.192 19.805 
963 12 1  3.429 40.777 21.313 
964 12 1  3.054 39.871 23.718 
965 12 1  1.531 40.567 25.713 
966 12 1 -0.227 41.275 27.446 
967 12 1 -2.451 41.528 28.706 
968 12 1 49.615 41.676 29.645 
969 12 1 47.278 41.983 30.514 
970 12 1 44.971 42.565 30.377 
971 12 1 42.558 42.920 29.729 
972 12 1 40.457 44.090 28.970 
973 12 1 39.187  5.921 28.981 
974 12 1 40.579  7.556 28.178 
975 12 1 41.773  8.997 26.478 
976 12 1 42.621 11.078 25.326 
977 12 1 44.034 12.799 24.760 
978 12 1 46.262 13.751 24.780 
979 12 1 48.667 14.627 24.700 
980 12 1 51.184 14.923 24.002 
981 12 1 -1.935 16.442 25.068 
982 12 1 -0.202 18.185 24.332 
983 12 1 -0.934 19.697 22.615 
984 12 1 -2.173 20.743 20.976 
985 12 1 50.301 22.088 20.208 
986 12 1 48.164 23.398 19.514 