LAMMPS data file generated by aa2cg.

2000 atoms
1 atom types
1975 bonds
1 bond types
1950 angles
1 angle types
1925 dihedrals
1 dihedral types

 0.000 35.937 xlo xhi
 0.000 60.762 ylo yhi
 0.000 53.122 zlo zhi

Masses

1 24.022

Atoms # molecular

1 1 1 26.925 23.014 40.843 
2 1 1 40.050 42.487 15.344 
3 2 1 33.672 28.972 22.331 
4 2 1 37.436 24.373 -2.242 
5 3 1 13.749 37.835  6.241 
6 3 1 19.367 13.776 -1.868 
7 4 1 30.949 22.287 27.954 
8 4 1 32.237  1.227 16.613 
9 5 1 27.313  9.147  0.448 
10 5 1 31.218 46.507 20.694 
11 6 1 14.767 -5.124 15.999 
12 6 1 19.044 47.380 21.830 
13 7 1 25.207 35.128 20.248 
14 7 1 15.449 14.896  3.832 
15 8 1 25.412 30.211 11.741 
16 8 1 30.347 24.902  0.770 
17 9 1 10.351 53.393 38.743 
18 9 1 12.853  4.722 50.796 
19 10 1 15.305 -2.208 43.154 
20 10 1 16.834 46.705  5.545 
21 11 1 39.622 32.904 29.975 
22 11 1  6.457 22.494 24.528 
23 12 1 20.127  3.023 43.173 
24 12 1 19.740 -2.203 42.072 
25 13 1 30.962 42.493  1.870 
26 13 1 12.824 -3.858 34.374 
27 14 1  8.544 -4.314  8.709 
28 14 1 13.431  9.146 15.748 
29 15 1 14.168  9.356 20.540 
30 15 1 23.424 10.269 23.084 
31 16 1 26.733  0.596 13.919 
32 16 1 27.785 -3.945 33.447 
33 17 1 33.809  5.487 43.313 
34 17 1 14.896 23.093 30.551 
35 18 1 10.970 20.100 14.842 
36 18 1 13.943 13.621 30.246 
37 19 1 27.216 33.993 50.660 
38 19 1  6.806 50.656 36.799 
39 20 1 24.250 19.422 39.037 
40 20 1 16.428 24.078 24.248 
41 21 1 39.667  7.437 35.083 
42 21 1 37.646 24.018  6.522 
43 22 1 41.374 49.565 49.576 
44 22 1 18.743  6.992 16.722 
45 23 1 18.593  3.450 13.749 
46 23 1  9.145 50.086  5.233 
47 24 1 42.402 50.800 41.796 
48 24 1 24.927 30.227 27.432 
49 25 1 31.076 54.042 25.127 
50 25 1 23.921 15.060 22.064 
51 1 1 26.742 20.878 42.385 
52 1 1 28.423 19.787 43.963 
53 1 1 29.130 19.327 46.039 
54 1 1 29.300 19.442 48.538 
55 1 1 29.090 19.689 50.995 
56 1 1 28.881 20.398  0.403 
57 1 1 27.988 20.633  2.574 
58 1 1 26.578 20.153  4.637 
59 1 1 25.396 19.681  6.898 
60 1 1 24.144 18.896  8.939 
61 1 1 22.697 17.881 10.946 
62 1 1 21.240 17.167 12.945 
63 1 1 19.871 17.013 15.155 
64 1 1 19.511 17.510 17.297 
65 1 1 20.655 18.536 19.456 
66 1 1 22.983 19.309 19.536 
67 1 1 25.498 19.194 19.312 
68 1 1 27.570 18.395 18.491 
69 1 1 29.180 16.994 17.002 
70 1 1 31.321 16.203 15.764 
71 1 1 32.471 15.526 13.836 
72 1 1 32.751 15.291 11.313 
73 1 1 33.226 14.498  8.910 
74 1 1 33.571 13.272  6.652 
75 1 1 34.296 11.415  4.930 
76 1 1 32.999 10.519  3.207 
77 1 1 30.607  9.468  3.278 
78 1 1 29.134 10.788  4.293 
79 1 1 28.287 11.915  6.534 
80 1 1 29.097 11.802  9.038 
81 1 1 29.927 11.727 11.572 
82 1 1 31.533 11.437 13.178 
83 1 1 33.792 10.564 14.126 
84 1 1 34.678  8.205 13.777 
85 1 1 34.891  5.807 13.829 
86 1 1 34.170  3.806 13.216 
87 1 1 31.784  3.590 12.271 
88 1 1 29.741  4.450 11.558 
89 1 1 27.974  6.067 10.948 
90 1 1 26.299  7.618  9.540 
91 1 1 24.587  8.769  8.147 
92 1 1 24.142  9.613  5.726 
93 1 1 23.596 10.123  3.297 
94 1 1 23.241 10.483  0.676 
95 1 1 22.953 10.560 -1.913 
96 1 1 22.318  9.614 49.210 
97 1 1 22.115  7.833 47.426 
98 1 1 20.858  6.263 46.239 
99 1 1 19.644  4.503 47.706 
100 1 1 19.493  2.652 49.119 
101 1 1 20.480  0.595 50.314 
102 1 1 21.839 -1.036 -1.299 
103 1 1 24.026 -0.343 -0.900 
104 1 1 25.588  1.495 -0.125 
105 1 1 27.484  2.961  0.723 
106 1 1 29.165  4.748  1.396 
107 1 1 30.788  6.500  1.229 
108 1 1 32.056  8.383 -0.012 
109 1 1 33.184 10.485 -0.724 
110 1 1 34.893 12.009 -0.377 
111 1 1 37.026 12.652  0.914 
112 1 1 39.082 13.545  2.195 
113 1 1 38.923 14.732  4.491 
114 1 1 38.582 15.748  6.816 
115 1 1 37.995 16.889  9.037 
116 1 1 37.652 18.280 11.141 
117 1 1 37.535 19.248 13.442 
118 1 1 37.451 20.328 15.731 
119 1 1 36.997 22.190 16.960 
120 1 1 35.578 24.180 17.909 
121 1 1 34.558 25.589 16.282 
122 1 1 35.187 28.024 16.214 
123 1 1 35.172 29.728 14.385 
124 1 1 37.265 30.772 13.404 
125 1 1 37.714 33.265 12.707 
126 1 1 38.035 35.808 12.047 
127 1 1 38.692 37.928 13.276 
128 1 1 39.515 40.172 14.425 
129 2 1 35.642 28.444 20.663 
130 2 1 37.774 28.700 19.734 
131 2 1 39.728 27.610 20.725 
132 2 1 41.467 26.029 20.610 
133 2 1 42.220 23.701 20.251 
134 2 1 41.834 22.224 18.248 
135 2 1 42.163 20.645 16.229 
136 2 1 42.525 19.369 14.065 
137 2 1  6.823 17.970 11.859 
138 2 1  7.094 16.711  9.695 
139 2 1  7.339 15.444  7.553 
140 2 1  7.269 13.956  5.488 
141 2 1  7.159 12.223  3.541 
142 2 1  6.826 10.706  1.526 
143 2 1  6.114 10.540 -0.617 
144 2 1 41.787 10.899 50.254 
145 2 1 42.657 10.975 47.897 
146 2 1  7.746 10.553 45.624 
147 2 1  7.739 10.658 43.323 
148 2 1  6.491 10.922 41.086 
149 2 1  6.633 12.726 39.266 
150 2 1  6.836 14.957 37.919 
151 2 1  7.165 17.081 36.500 
152 2 1  7.645 19.158 35.098 
153 2 1  7.833 21.514 33.896 
154 2 1  7.801 24.088 33.252 
155 2 1  7.790 26.564 32.380 
156 2 1  7.611 29.038 32.348 
157 2 1  8.433 30.996 33.471 
158 2 1 10.368 32.256 34.699 
159 2 1 12.106 30.997 36.052 
160 2 1 13.829 29.811 37.455 
161 2 1 15.499 28.250 38.325 
162 2 1 14.631 25.975 39.032 
163 2 1 13.967 23.713 39.859 
164 2 1 13.816 21.598 41.430 
165 2 1 13.416 19.742 42.970 
166 2 1 12.549 17.729 44.310 
167 2 1 11.634 15.805 45.840 
168 2 1 10.386 15.063 47.652 
169 2 1  8.269 15.400 49.099 
170 2 1  6.907 16.032 50.914 
171 2 1 42.147 17.276 -0.072 
172 2 1 41.383 18.445  2.104 
173 2 1 40.912 19.282  4.441 
174 2 1 40.351 20.176  6.796 
175 2 1 39.967 21.221  9.040 
176 2 1 39.433 22.614 11.203 
177 2 1 38.520 23.856 13.400 
178 2 1 39.498 26.045 14.404 
179 2 1 40.444 28.268 15.332 
180 2 1 41.947 29.682 16.463 
181 2 1  7.476 31.090 17.706 
182 2 1  8.548 33.377 18.274 
183 2 1  9.658 35.534 18.867 
184 2 1 10.815 37.827 19.323 
185 2 1 11.338 39.196 21.251 
186 2 1 11.893 40.365 23.358 
187 2 1 11.951 41.956 25.287 
188 2 1 12.523 42.785 27.433 
189 2 1 13.482 42.704 29.820 
190 2 1 15.770 43.199 30.752 
191 2 1 17.972 43.918 31.680 
192 2 1 18.737 43.823 34.127 
193 2 1 19.239 43.602 36.599 
194 2 1 20.900 41.813 37.483 
195 2 1 22.594 39.981 38.099 
196 2 1 24.002 37.824 38.649 
197 2 1 25.499 35.723 38.791 
198 2 1 26.871 33.600 38.498 
199 2 1 28.140 31.392 38.261 
200 2 1 29.226 30.172 40.234 
201 2 1 27.902 28.388 41.371 
202 2 1 28.638 26.480 43.040 
203 2 1 29.864 24.666 44.414 
204 2 1 31.478 23.586 45.856 
205 2 1 33.327 23.871 47.618 
206 2 1 35.342 24.213 49.307 
207 3 1 14.944 36.062  5.171 
208 3 1 16.918 34.599  4.337 
209 3 1 18.842 32.901  3.845 
210 3 1 20.467 31.013  3.268 
211 3 1 21.977 29.088  2.320 
212 3 1 23.623 27.348  1.193 
213 3 1 24.684 25.230  0.322 
214 3 1 25.404 23.991 -1.378 
215 3 1 25.789 23.718 49.205 
216 3 1 26.004 23.614 46.613 
217 3 1 24.075 24.624 45.664 
218 3 1 21.605 25.175 45.219 
219 3 1 19.630 25.824 46.782 
220 3 1 18.489 26.186 48.754 
221 3 1 18.220 26.949 50.908 
222 3 1 18.077 29.063 -0.533 
223 3 1 16.521 30.357  0.454 
224 3 1 14.305 31.317  0.962 
225 3 1 13.031 33.234  1.350 
226 3 1 13.616 34.231 -0.963 
227 3 1 11.455 34.620 -1.670 
228 3 1  9.048 35.589 -1.862 
229 3 1  7.892 37.119 -0.195 
230 3 1  6.488 38.248  1.642 
231 3 1 40.502 39.431  2.944 
232 3 1 38.761 40.981  2.964 
233 3 1 36.932 42.686  2.446 
234 3 1 36.002 44.766  2.919 
235 3 1 36.105 47.294  3.716 
236 3 1 38.208 48.585  3.072 
237 3 1 39.419 50.383  4.494 
238 3 1 40.665 52.308  5.771 
239 3 1 41.004 54.587  6.111 
240 3 1 40.777 -3.723  5.443 
241 3 1 39.525 -2.701  3.409 
242 3 1 38.031 -1.818  1.520 
243 3 1 36.487 -1.051 -0.488 
244 3 1 35.070 -0.796 -2.548 
245 3 1 33.733 -0.755 48.426 
246 3 1 32.911  1.028 46.829 
247 3 1 31.601  2.637 45.523 
248 3 1 29.459  3.972 44.997 
249 3 1 27.462  5.449 44.483 
250 3 1 25.332  6.678 43.997 
251 3 1 23.777  6.373 42.053 
252 3 1 22.353  6.072 40.031 
253 3 1 20.205  7.388 39.489 
254 3 1 18.155  8.671 38.671 
255 3 1 16.577 10.337 38.765 
256 3 1 15.396 12.264 39.912 
257 3 1 15.105 12.400 42.475 
258 3 1 13.747 11.460 44.404 
259 3 1 12.753 10.666 46.659 
260 3 1 11.530  9.957 48.825 
261 3 1 10.994 11.552 50.783 
262 3 1 10.503 13.239 -0.500 
263 3 1 10.463 15.131  1.211 
264 3 1 10.126 16.847  3.211 
265 3 1  9.664 18.466  5.249 
266 3 1  9.279 20.024  7.262 
267 3 1  9.030 21.681  9.285 
268 3 1  8.407 23.584 10.913 
269 3 1  7.557 23.829 13.322 
270 3 1  8.610 25.369 15.130 
271 3 1 10.471 26.364 16.108 
272 3 1 12.881 27.001 16.388 
273 3 1 15.224 28.082 16.639 
274 3 1 17.578 29.077 16.936 
275 3 1 19.119 27.880 15.625 
276 3 1 19.903 26.437 14.091 
277 3 1 19.173 25.234 11.835 
278 3 1 18.885 23.354 10.596 
279 3 1 19.101 21.569  9.135 
280 3 1 19.918 20.292  7.011 
281 3 1 20.942 19.019  4.980 
282 3 1 20.967 17.262  3.591 
283 3 1 20.459 15.428  2.001 
284 3 1 20.480 13.640  0.200 
285 4 1 31.452 20.538 29.794 
286 4 1 31.840 18.679 31.614 
287 4 1 31.903 16.778 33.283 
288 4 1 32.003 14.766 34.814 
289 4 1 31.670 12.770 36.278 
290 4 1 30.799 12.020 38.629 
291 4 1 29.907 10.817 40.676 
292 4 1 29.235  9.985 42.958 
293 4 1 30.731 10.316 44.727 
294 4 1 32.209 10.598 46.267 
295 4 1 33.928  9.612 47.930 
296 4 1 34.891  7.137 47.807 
297 4 1 35.963  4.808 47.481 
298 4 1 36.911  2.411 47.105 
299 4 1 39.154  1.574 47.756 
300 4 1 40.873  1.307 49.332 
301 4 1 39.595  1.524 51.631 
302 4 1 40.228  2.247  0.910 
303 4 1 40.187  2.752  3.530 
304 4 1 38.429  1.873  4.590 
305 4 1 36.206  0.526  4.409 
306 4 1 34.583 -1.251  4.546 
307 4 1 33.742 -3.582  5.137 
308 4 1 32.163 -5.210  5.964 
309 4 1 29.990 54.442  6.901 
310 4 1 27.983 54.118  5.768 
311 4 1 26.665 53.402  3.592 
312 4 1 26.031 51.055  2.681 
313 4 1 26.409 50.316  0.154 
314 4 1 27.212 48.056 -0.895 
315 4 1 28.122 45.893 -1.734 
316 4 1 28.624 43.526 -1.654 
317 4 1 26.264 42.856 -1.596 
318 4 1 23.762 43.144 -1.300 
319 4 1 22.900 44.434  0.732 
320 4 1 22.780 45.351  2.811 
321 4 1 21.661 43.881  4.691 
322 4 1 20.423 42.359  6.381 
323 4 1 20.788 40.069  6.160 
324 4 1 20.786 37.928  4.808 
325 4 1 21.315 36.061  3.019 
326 4 1 21.888 34.226  1.200 
327 4 1 22.459 32.271 -0.509 
328 4 1 23.055 30.231 -1.979 
329 4 1 21.939 29.944 48.764 
330 4 1 20.848 30.148 46.406 
331 4 1 18.904 30.657 45.047 
332 4 1 18.546 33.222 44.895 
333 4 1 18.003 35.690 45.089 
334 4 1 17.573 38.164 45.461 
335 4 1 17.270 40.697 45.576 
336 4 1 16.797 42.748 46.712 
337 4 1 15.616 44.518 48.360 
338 4 1 14.065 44.308 50.327 
339 4 1 13.216 43.625 -0.611 
340 4 1 11.833 42.847  0.963 
341 4 1 10.069 42.817  2.594 
342 4 1  9.101 42.031  4.463 
343 4 1  7.953 40.132  5.753 
344 4 1  6.746 38.406  7.170 
345 4 1 41.178 36.464  6.277 
346 4 1 38.744 35.929  7.003 
347 4 1 36.285 35.762  7.424 
348 4 1 33.711 35.941  7.303 
349 4 1 31.389 36.337  7.796 
350 4 1 29.313 37.272  9.008 
351 4 1 27.411 38.491 10.149 
352 4 1 27.357 40.176 12.174 
353 4 1 27.215 42.056 13.919 
354 4 1 27.200 44.209 15.299 
355 4 1 27.460 46.350 16.615 
356 4 1 27.698 48.384 18.072 
357 4 1 27.777 50.577 19.417 
358 4 1 28.090 52.944 20.329 
359 4 1 28.547 55.296 21.315 
360 4 1 28.415 -3.304 19.866 
361 4 1 29.041 -1.967 18.038 
362 4 1 30.463 -0.622 16.867 
363 5 1 26.406  7.406 -0.824 
364 5 1 25.805  5.866 50.245 
365 5 1 25.570  4.098 48.531 
366 5 1 25.254  2.131 46.926 
367 5 1 23.293  0.921 45.744 
368 5 1 21.593 -0.703 45.658 
369 5 1 20.339 -2.819 46.371 
370 5 1 19.390 -5.181 46.561 
371 5 1 18.753 54.810 48.633 
372 5 1 17.268 54.811 50.727 
373 5 1 15.579 54.681 -0.487 
374 5 1 13.852 -6.032  1.329 
375 5 1 12.148 52.690  1.653 
376 5 1  9.577 52.704  1.418 
377 5 1  7.022 52.955  1.246 
378 5 1 40.978 53.022  0.037 
379 5 1 39.508 53.179 -2.066 
380 5 1 37.957 53.447 49.063 
381 5 1 36.598 53.752 46.902 
382 5 1 35.212 54.488 44.803 
383 5 1 33.565 -5.620 42.935 
384 5 1 31.749 -4.725 41.371 
385 5 1 30.320 -6.030 40.174 
386 5 1 29.118 52.969 39.055 
387 5 1 30.468 50.807 39.199 
388 5 1 32.098 48.889 39.024 
389 5 1 33.810 46.934 38.632 
390 5 1 35.357 44.909 38.440 
391 5 1 36.831 42.858 38.285 
392 5 1 38.477 40.927 38.298 
393 5 1 39.995 38.945 38.734 
394 5 1 39.249 36.579 38.001 
395 5 1 37.788 34.691 37.041 
396 5 1 36.028 33.079 35.745 
397 5 1 35.254 33.163 33.351 
398 5 1 35.339 31.300 31.495 
399 5 1 35.552 29.073 30.707 
400 5 1 35.691 26.510 31.028 
401 5 1 35.438 24.005 31.514 
402 5 1 35.762 21.757 31.662 
403 5 1 36.237 19.436 30.730 
404 5 1 35.846 17.176 29.778 
405 5 1 34.496 15.066 30.145 
406 5 1 32.992 13.014 30.647 
407 5 1 31.190 12.139 29.075 
408 5 1 29.716 10.658 27.510 
409 5 1 27.459 11.408 27.618 
410 5 1 25.492 13.030 27.380 
411 5 1 23.544 14.706 27.187 
412 5 1 23.723 17.367 27.284 
413 5 1 23.048 19.022 25.397 
414 5 1 22.642 20.653 23.457 
415 5 1 21.973 22.372 21.679 
416 5 1 20.982 24.067 19.914 
417 5 1 18.742 25.260 19.799 
418 5 1 16.459 25.105 19.757 
419 5 1 14.156 24.162 19.379 
420 5 1 11.934 23.003 18.727 
421 5 1 10.000 21.790 19.200 
422 5 1 10.657 19.937 20.981 
423 5 1 11.952 18.398 22.266 
424 5 1 13.859 16.777 22.385 
425 5 1 14.732 14.855 23.025 
426 5 1 14.365 12.513 24.109 
427 5 1 14.756 10.952 25.681 
428 5 1 16.122 10.152 27.838 
429 5 1 17.711  9.298 29.723 
430 5 1 19.266  7.884 30.543 
431 5 1 20.362  5.654 30.006 
432 5 1 21.343  3.471 29.194 
433 5 1 22.325  1.249 28.339 
434 5 1 23.088 -1.005 27.359 
435 5 1 24.204 -3.201 26.372 
436 5 1 25.344 -5.379 25.743 
437 5 1 26.099 52.995 25.141 
438 5 1 26.844 50.608 24.711 
439 5 1 27.940 48.243 24.404 
440 5 1 29.726 47.607 22.512 
441 6 1 16.095 54.265 17.210 
442 6 1 17.795 52.996 18.082 
443 6 1 19.113 50.851 18.251 
444 6 1 17.907 48.554 17.901 
445 6 1 16.693 46.270 17.722 
446 6 1 17.273 44.315 16.087 
447 6 1 15.572 42.451 15.359 
448 6 1 14.073 40.544 14.565 
449 6 1 12.523 38.611 14.120 
450 6 1 13.186 36.137 14.273 
451 6 1 14.136 35.436 12.259 
452 6 1 15.363 34.245 10.657 
453 6 1 16.249 32.389  9.086 
454 6 1 16.948 30.575  7.450 
455 6 1 17.894 28.737  5.935 
456 6 1 18.795 27.055  4.211 
457 6 1 19.341 25.459  2.213 
458 6 1 19.914 23.760  0.283 
459 6 1 20.683 22.184 -1.563 
460 6 1 21.986 21.259 49.795 
461 6 1 21.466 20.237 47.769 
462 6 1 20.548 19.350 45.859 
463 6 1 21.255 20.761 43.733 
464 6 1 21.951 22.501 41.962 
465 6 1 22.566 24.585 40.487 
466 6 1 23.494 26.688 39.337 
467 6 1 24.711 28.396 37.849 
468 6 1 23.794 30.760 37.249 
469 6 1 22.652 32.997 36.936 
470 6 1 21.187 35.023 37.011 
471 6 1 19.859 36.525 38.202 
472 6 1 18.752 38.226 39.318 
473 6 1 17.003 39.361 40.178 
474 6 1 14.922 39.252 41.686 
475 6 1 13.192 38.690 43.590 
476 6 1 11.219 37.580 42.610 
477 6 1  9.134 36.858 41.767 
478 6 1  6.578 36.743 41.942 
479 6 1 41.538 34.637 41.977 
480 6 1 40.589 32.643 40.635 
481 6 1 39.167 30.868 39.409 
482 6 1 37.525 29.244 38.368 
483 6 1 35.768 27.588 37.419 
484 6 1 33.436 28.046 36.352 
485 6 1 32.753 29.084 34.394 
486 6 1 31.121 30.977 33.877 
487 6 1 31.466 33.423 34.697 
488 6 1 29.740 35.279 34.322 
489 6 1 27.965 37.034 34.451 
490 6 1 26.119 38.827 34.353 
491 6 1 26.434 41.436 34.450 
492 6 1 24.673 43.311 34.369 
493 6 1 22.906 45.127 34.518 
494 6 1 23.183 47.632 34.922 
495 6 1 23.150 50.322 35.236 
496 6 1 23.503 52.841 35.547 
497 6 1 24.009 55.251 35.660 
498 6 1 22.437 -3.686 36.556 
499 6 1 20.908 -1.707 37.107 
500 6 1 19.652  0.512 37.574 
501 6 1 18.357  1.918 38.838 
502 6 1 16.214  2.639 39.937 
503 6 1 13.951  3.381 40.880 
504 6 1 11.963  1.979 41.765 
505 6 1 11.064  0.091 42.808 
506 6 1 10.728 -2.426 43.416 
507 6 1 10.549 -4.918 43.947 
508 6 1  9.558 53.742 42.848 
509 6 1 11.071 51.634 42.259 
510 6 1 12.878 50.694 41.158 
511 6 1 14.564 50.980 39.235 
512 6 1 14.352 51.796 36.728 
513 6 1 15.062 52.323 34.375 
514 6 1 16.289 52.642 32.110 
515 6 1 17.050 53.130 29.849 
516 6 1 17.827 52.085 27.735 
517 6 1 18.031 50.474 25.859 
518 6 1 18.453 48.896 23.870 
519 7 1 23.766 34.092 22.055 
520 7 1 22.221 32.973 23.845 
521 7 1 20.243 32.649 24.956 
522 7 1 17.920 33.775 25.609 
523 7 1 15.716 35.089 25.968 
524 7 1 13.570 36.455 26.125 
525 7 1 12.747 38.030 28.020 
526 7 1 12.049 38.315 30.087 
527 7 1 11.343 37.293 32.383 
528 7 1 12.683 35.828 33.431 
529 7 1 14.562 35.079 34.848 
530 7 1 16.426 33.848 35.477 
531 7 1 18.464 32.426 34.949 
532 7 1 20.601 31.344 33.843 
533 7 1 20.904 30.573 31.337 
534 7 1 21.349 32.328 29.937 
535 7 1 21.140 34.592 28.723 
536 7 1 21.041 36.640 27.197 
537 7 1 21.859 37.951 25.468 
538 7 1 22.365 39.055 23.556 
539 7 1 22.014 40.852 21.883 
540 7 1 21.826 42.847 20.418 
541 7 1 21.661 44.842 18.656 
542 7 1 21.863 46.728 16.985 
543 7 1 23.045 48.493 16.199 
544 7 1 23.644 50.810 17.200 
545 7 1 23.899 52.892 18.806 
546 7 1 24.998 54.642 17.774 
547 7 1 25.994 -5.136 15.594 
548 7 1 27.237 -4.125 13.707 
549 7 1 28.665 -3.083 11.881 
550 7 1 30.353 -2.128 10.264 
551 7 1 31.924 -0.756  9.106 
552 7 1 33.704  1.177  9.018 
553 7 1 35.537  2.897  8.716 
554 7 1 37.554  4.410  8.478 
555 7 1 38.762  6.447  8.334 
556 7 1 38.677  7.664 10.430 
557 7 1 39.092  8.628 12.745 
558 7 1 39.176  9.793 14.995 
559 7 1 38.085 10.277 16.903 
560 7 1 36.282  9.793 18.658 
561 7 1 34.418  8.008 18.624 
562 7 1 32.373  6.735 18.169 
563 7 1 30.241  6.188 16.767 
564 7 1 28.762  7.607 15.355 
565 7 1 26.985  9.093 14.271 
566 7 1 25.383 10.579 12.689 
567 7 1 24.263 12.143 10.970 
568 7 1 24.375 13.787  9.188 
569 7 1 24.606 14.996  6.955 
570 7 1 24.158 14.148  4.542 
571 7 1 25.618 15.017  2.510 
572 7 1 25.659 14.635 -0.058 
573 7 1 27.511 13.304 -1.261 
574 7 1 29.530 14.135 -2.238 
575 7 1 31.833 14.608 49.814 
576 7 1 33.446 16.074 49.112 
577 7 1 34.544 18.325 48.643 
578 7 1 34.040 20.160 50.004 
579 7 1 33.774 21.401 -0.796 
580 7 1 33.432 22.215  1.623 
581 7 1 32.707 22.566  3.783 
582 7 1 31.485 21.986  5.998 
583 7 1 29.911 21.722  7.960 
584 7 1 28.205 21.192  9.914 
585 7 1 26.635 20.655 11.846 
586 7 1 25.127 20.393 13.798 
587 7 1 23.304 20.691 15.208 
588 7 1 20.953 21.845 15.466 
589 7 1 18.760 23.037 15.831 
590 7 1 16.349 22.281 15.134 
591 7 1 14.673 23.871 14.059 
592 7 1 12.877 23.302 12.257 
593 7 1 13.294 22.145  9.907 
594 7 1 14.157 20.839  7.909 
595 7 1 15.041 19.260  6.148 
596 7 1 15.470 17.246  4.698 
597 8 1 24.477 30.321 14.127 
598 8 1 23.109 31.334 15.580 
599 8 1 21.982 33.276 16.770 
600 8 1 21.203 35.324 18.186 
601 8 1 20.542 37.652 19.253 
602 8 1 20.336 39.835 18.005 
603 8 1 20.385 41.310 16.318 
604 8 1 21.166 41.873 13.965 
605 8 1 21.681 42.070 11.395 
606 8 1 23.021 40.434 10.073 
607 8 1 24.067 38.775  8.374 
608 8 1 24.674 37.046  6.570 
609 8 1 25.303 35.135  4.920 
610 8 1 25.944 33.231  3.208 
611 8 1 26.786 31.271  1.645 
612 8 1 27.694 29.162  0.446 
613 8 1 27.174 28.477 -2.005 
614 8 1 26.516 28.770 48.914 
615 8 1 25.860 28.902 46.744 
616 8 1 25.026 28.830 44.545 
617 8 1 23.844 29.859 42.589 
618 8 1 23.467 32.097 42.349 
619 8 1 23.317 34.420 42.495 
620 8 1 22.506 36.773 42.841 
621 8 1 21.747 39.135 42.671 
622 8 1 20.942 41.644 42.736 
623 8 1 19.827 43.851 43.231 
624 8 1 18.352 45.742 44.075 
625 8 1 17.198 47.868 45.113 
626 8 1 14.692 48.288 45.151 
627 8 1 12.374 47.782 45.243 
628 8 1 11.341 46.802 47.364 
629 8 1  9.981 45.890 49.361 
630 8 1  8.756 43.660 49.960 
631 8 1  6.914 43.044 -1.506 
632 8 1 41.101 41.171 51.239 
633 8 1 39.144 39.475 51.062 
634 8 1 37.395 37.951 50.227 
635 8 1 38.217 36.349 48.307 
636 8 1 38.969 35.031 46.148 
637 8 1 37.949 35.299 43.819 
638 8 1 36.438 35.900 41.795 
639 8 1 34.892 37.285 40.874 
640 8 1 33.435 39.355 41.004 
641 8 1 31.937 41.447 41.235 
642 8 1 30.507 43.472 41.945 
643 8 1 29.194 45.650 42.166 
644 8 1 28.026 47.890 42.393 
645 8 1 26.827 50.133 42.909 
646 8 1 27.629 52.412 43.835 
647 8 1 28.593 53.946 45.199 
648 8 1 30.257 54.930 46.535 
649 8 1 31.904 -5.191 47.911 
650 8 1 33.246 -5.195 50.107 
651 8 1 34.707 -5.301 -0.911 
652 8 1 35.897 -5.822  1.247 
653 8 1 37.085 54.248  3.452 
654 8 1 35.996 52.835  5.246 
655 8 1 35.129 51.286  7.139 
656 8 1 34.401 49.124  7.989 
657 8 1 33.848 46.568  7.826 
658 8 1 35.728 44.807  7.594 
659 8 1 37.672 43.142  7.322 
660 8 1 39.517 42.041  8.248 
661 8 1 41.498 42.290  9.451 
662 8 1  7.815 42.535  9.901 
663 8 1 10.166 41.732 10.075 
664 8 1 12.496 40.801  9.611 
665 8 1 14.934 40.011  9.358 
666 8 1 17.465 39.339  9.360 
667 8 1 18.735 37.140  8.752 
668 8 1 20.256 35.182  8.187 
669 8 1 21.864 33.331  7.441 
670 8 1 23.447 31.514  6.485 
671 8 1 25.032 29.742  5.505 
672 8 1 26.308 27.815  4.401 
673 8 1 27.130 25.624  3.556 
674 8 1 29.455 25.311  3.182 
675 9 1  9.952 54.003 36.489 
676 9 1  8.610 54.623 34.420 
677 9 1  7.504 -6.345 32.394 
678 9 1  6.231 54.202 30.537 
679 9 1 41.136 54.317 28.500 
680 9 1 40.945 54.222 25.944 
681 9 1 40.780 53.911 23.326 
682 9 1 41.798 -5.453 21.375 
683 9 1 41.852 54.521 18.971 
684 9 1 42.114 53.877 16.520 
685 9 1 42.324 52.908 14.192 
686 9 1  8.241 53.234 12.437 
687 9 1  8.237 51.952 10.191 
688 9 1  9.115 49.619  9.550 
689 9 1 10.427 47.623  8.736 
690 9 1 11.968 45.772  7.585 
691 9 1 13.286 43.851  6.656 
692 9 1 14.793 42.459  5.209 
693 9 1 16.111 41.010  3.566 
694 9 1 17.291 39.399  1.842 
695 9 1 18.368 37.562  0.377 
696 9 1 17.748 35.171 -0.400 
697 9 1 17.836 34.360 50.286 
698 9 1 16.886 32.170 49.284 
699 9 1 15.219 30.550 48.615 
700 9 1 13.622 28.984 48.484 
701 9 1 13.057 26.491 48.745 
702 9 1 11.214 24.894 49.569 
703 9 1 10.646 25.120 -1.352 
704 9 1  9.901 26.591  0.708 
705 9 1  9.102 27.903  2.705 
706 9 1  8.253 29.179  4.698 
707 9 1  7.295 30.317  6.741 
708 9 1 41.877 31.443  8.651 
709 9 1 41.698 32.365 10.736 
710 9 1 42.431 32.938 13.129 
711 9 1  7.622 34.959 13.031 
712 9 1  8.572 37.019 11.979 
713 9 1  9.979 36.420  9.835 
714 9 1 10.859 34.954  8.187 
715 9 1 11.533 32.747  6.940 
716 9 1 12.270 30.724  5.656 
717 9 1 13.262 28.685  4.384 
718 9 1 14.175 26.592  3.262 
719 9 1 14.619 24.966  1.524 
720 9 1 15.208 23.768 -0.696 
721 9 1 15.905 22.609 50.231 
722 9 1 16.771 21.341 48.229 
723 9 1 17.099 22.136 45.882 
724 9 1 17.529 23.056 43.579 
725 9 1 17.578 24.768 41.955 
726 9 1 18.239 27.096 41.942 
727 9 1 19.334 28.879 41.028 
728 9 1 19.998 30.889 40.029 
729 9 1 18.073 32.495 40.318 
730 9 1 16.022 34.173 40.395 
731 9 1 13.801 34.546 40.277 
732 9 1 11.347 33.792 40.003 
733 9 1  9.004 32.761 39.471 
734 9 1  8.329 30.383 38.805 
735 9 1  7.698 27.882 38.398 
736 9 1  7.456 25.303 38.238 
737 9 1  6.787 22.886 37.854 
738 9 1 41.071 21.391 39.363 
739 9 1 39.593 20.028 41.096 
740 9 1 37.442 18.734 40.249 
741 9 1 35.306 17.400 39.742 
742 9 1 33.195 16.067 39.441 
743 9 1 30.760 15.985 40.433 
744 9 1 28.394 15.782 41.348 
745 9 1 25.969 15.716 42.266 
746 9 1 23.508 15.739 43.023 
747 9 1 21.577 15.194 44.440 
748 9 1 20.250 13.857 46.233 
749 9 1 18.778 11.985 46.849 
750 9 1 17.514  9.867 47.616 
751 9 1 16.331  7.839 48.806 
752 9 1 14.696  6.279 49.911 
753 10 1 14.693 -3.027 45.507 
754 10 1 13.978 -3.824 47.839 
755 10 1 12.629 -4.836 49.340 
756 10 1 10.492 54.812 49.869 
757 10 1  8.355 -5.029 48.564 
758 10 1  6.513 -5.512 46.764 
759 10 1 40.756 54.637 44.863 
760 10 1 39.069 54.028 42.939 
761 10 1 37.502 53.422 41.016 
762 10 1 35.727 52.975 39.173 
763 10 1 34.932 51.898 37.475 
764 10 1 35.148 49.945 35.619 
765 10 1 34.696 48.174 33.947 
766 10 1 34.360 46.525 32.107 
767 10 1 34.419 43.930 32.160 
768 10 1 34.351 41.363 32.076 
769 10 1 32.669 40.271 30.895 
770 10 1 30.278 39.437 30.387 
771 10 1 27.866 39.002 29.992 
772 10 1 25.567 39.289 29.286 
773 10 1 25.223 40.794 27.134 
774 10 1 24.697 42.264 25.105 
775 10 1 23.288 44.430 24.811 
776 10 1 22.589 46.633 25.192 
777 10 1 22.679 48.978 26.192 
778 10 1 22.778 51.121 27.581 
779 10 1 23.012 53.113 29.149 
780 10 1 23.677 54.775 31.001 
781 10 1 24.468 -3.498 30.563 
782 10 1 24.642 -1.589 32.271 
783 10 1 24.713  0.213 34.129 
784 10 1 26.725  1.643 34.958 
785 10 1 28.872  3.055 35.480 
786 10 1 30.789  4.185 34.811 
787 10 1 32.648  5.210 33.349 
788 10 1 33.147  7.639 33.477 
789 10 1 34.486  9.750 33.899 
790 10 1 35.981 11.753 34.218 
791 10 1 38.484 11.517 34.756 
792 10 1 39.556 13.449 33.741 
793 10 1 40.175 15.313 32.032 
794 10 1 40.792 14.824 29.622 
795 10 1 40.724 13.718 27.593 
796 10 1 38.291 13.303 26.820 
797 10 1 36.878 11.247 27.484 
798 10 1 35.374  9.166 27.790 
799 10 1 33.908  7.066 27.994 
800 10 1 31.291  7.044 27.972 
801 10 1 29.991  6.652 29.871 
802 10 1 28.832  7.249 32.064 
803 10 1 28.074  8.083 34.468 
804 10 1 29.695  8.847 35.937 
805 10 1 30.066  7.394 37.955 
806 10 1 30.585  5.518 39.640 
807 10 1 30.337  3.286 40.460 
808 10 1 30.136  1.052 41.230 
809 10 1 29.710 -0.607 42.781 
810 10 1 28.228 -1.595 44.625 
811 10 1 26.670 -2.293 46.475 
812 10 1 24.976 -3.877 46.206 
813 10 1 24.322 -6.342 45.681 
814 10 1 23.044 52.325 45.052 
815 10 1 21.726 50.071 44.506 
816 10 1 22.969 47.791 44.018 
817 10 1 24.281 45.674 43.508 
818 10 1 25.512 43.499 43.048 
819 10 1 26.601 41.082 43.126 
820 10 1 27.348 38.697 43.752 
821 10 1 27.949 36.218 44.105 
822 10 1 27.185 34.375 45.583 
823 10 1 24.730 34.100 46.326 
824 10 1 22.884 34.659 47.500 
825 10 1 21.730 36.638 48.701 
826 10 1 20.602 38.696 49.752 
827 10 1 19.564 40.722 50.876 
828 10 1 18.520 42.678 -0.864 
829 10 1 17.821 44.077  1.317 
830 10 1 17.337 45.410  3.422 
831 11 1 40.842 30.826 29.024 
832 11 1 40.966 28.451 28.857 
833 11 1 40.343 26.031 29.457 
834 11 1 40.051 23.504 30.190 
835 11 1 39.700 21.371 29.402 
836 11 1 39.415 19.677 27.431 
837 11 1 38.793 17.765 25.863 
838 11 1 36.693 17.218 24.483 
839 11 1 35.538 18.080 22.365 
840 11 1 34.321 18.897 20.342 
841 11 1 32.880 19.700 18.370 
842 11 1 31.294 21.231 17.392 
843 11 1 29.865 22.692 16.322 
844 11 1 29.289 24.391 14.928 
845 11 1 29.919 26.671 13.853 
846 11 1 29.835 28.767 12.617 
847 11 1 29.705 30.920 14.085 
848 11 1 28.884 33.213 13.224 
849 11 1 27.332 35.055 14.123 
850 11 1 25.798 36.660 15.231 
851 11 1 24.287 38.312 16.660 
852 11 1 25.702 39.804 17.708 
853 11 1 28.052 40.312 18.711 
854 11 1 30.298 40.926 19.724 
855 11 1 32.543 41.688 20.727 
856 11 1 34.455 42.935 21.809 
857 11 1 36.329 44.312 23.040 
858 11 1 37.795 46.026 24.301 
859 11 1 38.822 47.869 25.840 
860 11 1 40.475 49.452 25.827 
861 11 1 42.356 50.726 26.140 
862 11 1  8.185 49.443 27.289 
863 11 1  9.607 48.349 25.408 
864 11 1 10.158 46.690 23.928 
865 11 1  9.279 44.613 22.865 
866 11 1  8.090 42.502 21.974 
867 11 1  6.743 40.409 21.105 
868 11 1  6.371 37.892 21.421 
869 11 1 42.150 35.236 21.551 
870 11 1  6.324 32.678 21.693 
871 11 1  6.813 30.461 22.495 
872 11 1  7.975 28.918 24.173 
873 11 1  8.652 27.018 25.727 
874 11 1  9.228 25.165 27.440 
875 11 1  9.158 23.085 29.025 
876 11 1  8.818 20.796 29.374 
877 11 1  8.138 18.424 28.547 
878 11 1  7.370 17.697 26.202 
879 11 1  6.864 16.901 23.806 
880 11 1 41.741 14.816 22.839 
881 11 1 40.126 13.265 22.319 
882 11 1 37.553 12.508 22.555 
883 11 1 35.066 12.031 22.812 
884 11 1 33.630 12.594 24.859 
885 11 1 32.131 14.623 25.365 
886 11 1 32.208 16.805 26.254 
887 11 1 33.471 18.970 26.488 
888 11 1 34.721 21.163 26.853 
889 11 1 34.943 23.588 27.134 
890 11 1 34.199 26.010 26.911 
891 11 1 33.101 28.373 26.643 
892 11 1 31.585 29.811 28.090 
893 11 1 30.089 31.334 29.469 
894 11 1 29.322 33.850 29.591 
895 11 1 27.238 34.304 28.743 
896 11 1 25.762 34.830 26.687 
897 11 1 26.173 36.483 24.620 
898 11 1 27.406 38.248 23.740 
899 11 1 29.883 37.475 23.432 
900 11 1 31.296 37.467 25.195 
901 11 1 32.581 37.399 27.176 
902 11 1 34.330 35.806 27.899 
903 11 1 35.758 33.995 27.926 
904 11 1 35.197 31.906 26.449 
905 11 1 36.650 29.948 25.610 
906 11 1 38.105 27.991 25.042 
907 11 1 39.185 25.877 25.105 
908 11 1 40.370 23.945 25.331 
909 12 1 17.751  2.824 44.045 
910 12 1 15.593  2.235 45.500 
911 12 1 14.039  1.803 47.552 
912 12 1 14.588  0.434 49.306 
913 12 1 15.808 -0.422 51.468 
914 12 1 17.088 -1.454  0.347 
915 12 1 18.545 -2.356  2.307 
916 12 1 19.870 -3.548  4.150 
917 12 1 21.103 -4.606  6.103 
918 12 1 22.015 -6.245  7.769 
919 12 1 20.485 52.515  8.402 
920 12 1 18.372 51.426  8.397 
921 12 1 17.452 52.524  6.575 
922 12 1 17.645 53.327  4.111 
923 12 1 19.130 51.976  2.678 
924 12 1 18.512 49.515  2.052 
925 12 1 19.138 48.083 -0.117 
926 12 1 19.702 46.795 -2.292 
927 12 1 20.328 45.624 48.640 
928 12 1 21.171 43.839 47.332 
929 12 1 22.291 41.557 46.887 
930 12 1 24.131 40.207 47.316 
931 12 1 26.289 39.204 48.352 
932 12 1 28.337 37.846 48.901 
933 12 1 30.420 36.512 49.266 
934 12 1 32.560 35.069 49.538 
935 12 1 34.349 33.773 48.714 
936 12 1 35.637 32.425 46.967 
937 12 1 35.230 31.614 44.609 
938 12 1 34.800 30.797 42.263 
939 12 1 34.171 30.881 40.024 
940 12 1 32.797 32.966 39.727 
941 12 1 31.266 34.957 39.295 
942 12 1 29.691 36.940 39.030 
943 12 1 28.082 38.998 38.961 
944 12 1 26.631 41.138 38.932 
945 12 1 25.027 43.237 38.855 
946 12 1 23.359 45.145 39.119 
947 12 1 21.800 47.133 39.565 
948 12 1 20.645 49.476 39.912 
949 12 1 19.599 51.677 40.444 
950 12 1 19.001 53.419 38.668 
951 12 1 18.498 54.887 36.736 
952 12 1 17.788 -4.845 34.407 
953 12 1 16.922 -2.405 34.215 
954 12 1 16.172  0.125 34.326 
955 12 1 15.376  2.336 35.152 
956 12 1 14.312  4.400 36.298 
957 12 1 12.987  6.300 37.403 
958 12 1 12.229  8.621 38.575 
959 12 1 11.403 10.839 39.711 
960 12 1 10.752 13.158 40.445 
961 12 1 10.426 15.633 41.088 
962 12 1 10.482 17.667 39.552 
963 12 1 10.741 19.711 38.088 
964 12 1 11.321 21.718 36.607 
965 12 1 11.788 23.769 35.127 
966 12 1 12.028 25.756 33.423 
967 12 1 11.905 27.274 31.307 
968 12 1 12.313 29.748 30.734 
969 12 1 11.558 30.931 28.515 
970 12 1 10.008 32.001 27.254 
971 12 1  8.715 33.504 28.801 
972 12 1  7.461 34.978 30.456 
973 12 1  6.436 36.764 31.928 
974 12 1 39.804 36.720 32.516 
975 12 1 37.168 37.089 32.552 
976 12 1 36.072 38.170 34.694 
977 12 1 33.545 38.231 35.279 
978 12 1 32.213 40.190 36.214 
979 12 1 31.036 42.260 36.789 
980 12 1 29.582 44.318 37.170 
981 12 1 28.133 46.362 37.854 
982 12 1 26.733 48.448 38.463 
983 12 1 25.315 50.524 39.257 
984 12 1 24.017 52.594 40.191 
985 12 1 22.724 54.617 40.934 
986 12 1 21.294 -4.174 41.648 