LAMMPS data file generated by aa2cg.

2000 atoms
1 atom types
1975 bonds
1 bond types
1950 angles
1 angle types
1925 dihedrals
1 dihedral types

 0.000 55.376 xlo xhi
 0.000 58.840 ylo yhi
 0.000 37.918 zlo zhi

Masses

1 24.022

Atoms # molecular

1 1 1 16.962 21.132 35.415 
2 1 1 28.818 46.332 16.090 
3 2 1  6.186 10.550 33.360 
4 2 1  3.807 24.108 38.575 
5 3 1 30.349  2.976 25.487 
6 3 1 11.530 -1.266 35.896 
7 4 1  3.221 27.357 18.622 
8 4 1 13.752  1.823 10.273 
9 5 1 32.120  0.795 35.930 
10 5 1 43.734 41.478 27.768 
11 6 1 20.053  4.440 30.742 
12 6 1 -0.737 16.459 42.315 
13 7 1 20.996 41.292 42.217 
14 7 1 37.400 -0.595 29.264 
15 8 1 38.758 40.191 27.065 
16 8 1 -0.524 10.677 17.192 
17 9 1 42.349 -1.849 37.000 
18 9 1 22.277 21.894 31.167 
19 10 1 15.274 -4.048 11.630 
20 10 1 48.781  1.191  7.596 
21 11 1 25.702 11.425 16.106 
22 11 1 51.045 52.185 39.244 
23 12 1  1.788 42.226 10.851 
24 12 1 32.722 -0.776 39.616 
25 13 1 35.842 38.474 14.468 
26 13 1 -0.373 35.253 37.835 
27 14 1 47.601 34.453 32.697 
28 14 1 46.964 13.035 17.818 
29 15 1  3.220 -3.804 23.812 
30 15 1 37.036 46.521  8.475 
31 16 1 10.242 21.312 11.457 
32 16 1  9.968 45.429  7.908 
33 17 1 16.204  5.082 13.785 
34 17 1 10.242 11.154 31.454 
35 18 1 36.045  0.852 33.368 
36 18 1 48.484 12.005 27.626 
37 19 1 21.061 45.307 23.331 
38 19 1 39.356 43.334 42.394 
39 20 1 49.580  6.502 21.611 
40 20 1  2.401  9.938 28.159 
41 21 1 48.790 18.545 25.601 
42 21 1  6.761 -0.262 34.803 
43 22 1 17.497 17.873 20.190 
44 22 1 43.419  3.037  8.919 
45 23 1 19.029  0.357 15.240 
46 23 1 49.346 46.090 18.835 
47 24 1 42.957 15.212 25.744 
48 24 1 17.952 33.072 36.115 
49 25 1 21.188  1.830 27.333 
50 25 1 42.901 13.600  9.920 
51 1 1 16.260 23.234 34.760 
52 1 1 14.776 24.857 33.594 
53 1 1 15.442 26.582 31.809 
54 1 1 16.343 28.153 30.133 
55 1 1 16.715 27.636 27.629 
56 1 1 16.148 26.365 25.737 
57 1 1 14.865 24.514 24.346 
58 1 1 13.817 22.421 23.214 
59 1 1 13.150 20.083 22.493 
60 1 1 12.462 17.625 21.828 
61 1 1 11.970 15.136 21.176 
62 1 1 11.818 12.844 19.952 
63 1 1  9.891 11.501 18.903 
64 1 1  8.188  9.953 17.928 
65 1 1  8.531  7.826 16.579 
66 1 1  7.740  5.398 16.892 
67 1 1  7.484  2.903 17.307 
68 1 1  7.797  0.374 17.604 
69 1 1  8.542 -2.050 17.745 
70 1 1  8.994 -4.249 18.634 
71 1 1  9.424 52.904 20.456 
72 1 1 10.143 51.199 22.257 
73 1 1 11.258 49.589 23.930 
74 1 1 12.244 48.398 26.043 
75 1 1 13.036 47.480 28.394 
76 1 1 13.476 46.798 30.893 
77 1 1 12.846 44.706 32.438 
78 1 1 12.415 42.471 32.718 
79 1 1 12.385 40.126 31.807 
80 1 1 12.315 37.936 30.597 
81 1 1 12.288 35.638 29.493 
82 1 1 12.180 33.116 28.532 
83 1 1 11.381 30.603 28.227 
84 1 1 10.718 29.439 26.009 
85 1 1 10.588 29.143 23.715 
86 1 1 10.816 30.127 21.249 
87 1 1 10.724 31.429 18.929 
88 1 1 11.908 33.749 18.839 
89 1 1 13.681 35.297 19.134 
90 1 1 15.965 35.866 19.993 
91 1 1 17.867 34.304 20.808 
92 1 1 19.511 32.721 21.959 
93 1 1 19.929 30.886 23.389 
94 1 1 19.884 28.408 22.639 
95 1 1 19.710 25.843 21.939 
96 1 1 19.875 23.403 21.001 
97 1 1 19.508 21.331 22.610 
98 1 1 19.138 19.815 24.563 
99 1 1 19.232 18.907 26.957 
100 1 1 19.489 18.083 29.381 
101 1 1 19.940 17.131 31.739 
102 1 1 19.860 15.398 33.499 
103 1 1 20.992 13.020 33.462 
104 1 1 22.431 11.499 32.627 
105 1 1 24.029 10.119 31.629 
106 1 1 25.908  8.912 32.312 
107 1 1 27.598  7.841 30.748 
108 1 1 29.720  6.716 29.474 
109 1 1 30.159  7.983 27.477 
110 1 1 28.686  6.942 25.724 
111 1 1 26.887  5.999 24.247 
112 1 1 24.556  5.048 23.512 
113 1 1 23.336  5.623 21.335 
114 1 1 21.135  4.967 20.227 
115 1 1 19.056  4.568 18.764 
116 1 1 16.984  3.808 17.946 
117 1 1 14.957  2.108 18.303 
118 1 1 13.232  0.238 18.942 
119 1 1 12.480 -1.144 21.118 
120 1 1 12.683 -2.782 22.784 
121 1 1 14.074 -4.708 23.839 
122 1 1 15.505 52.403 25.032 
123 1 1 17.378 51.114 23.948 
124 1 1 19.217 49.793 22.722 
125 1 1 21.071 48.754 21.436 
126 1 1 22.868 47.973 19.866 
127 1 1 24.742 46.696 18.817 
128 1 1 26.805 46.164 17.663 
129 2 1  4.117  9.184 32.697 
130 2 1  2.151  7.604 32.318 
131 2 1  0.154  6.039 32.288 
132 2 1 -1.901  4.501 31.933 
133 2 1 51.340  3.290 31.109 
134 2 1 50.912  2.564 28.608 
135 2 1 50.663  1.921 26.209 
136 2 1 48.913  0.429 25.052 
137 2 1 47.022 -1.003 24.995 
138 2 1 44.979 -2.135 26.178 
139 2 1 42.947 -3.413 27.190 
140 2 1 40.990 -4.821 28.086 
141 2 1 39.998 -5.073 30.480 
142 2 1 38.367 54.040 32.222 
143 2 1 36.263 -3.909 33.379 
144 2 1 34.654 -3.840 35.087 
145 2 1 32.796 -4.298 36.431 
146 2 1 30.289 -3.512 36.856 
147 2 1 28.011 -2.471 37.350 
148 2 1 25.659 -1.536 37.492 
149 2 1 23.693 -2.162 35.823 
150 2 1 22.255 -3.369 33.990 
151 2 1 20.904 -4.582 32.132 
152 2 1 20.296 53.112 30.248 
153 2 1 21.290 51.552 28.379 
154 2 1 21.219 50.160 26.530 
155 2 1 20.113 47.912 26.725 
156 2 1 18.105 47.927 27.647 
157 2 1 17.195 48.684 29.976 
158 2 1 16.125 49.278 32.218 
159 2 1 14.785 49.614 34.385 
160 2 1 14.193 47.891 36.174 
161 2 1 13.387 46.452 38.163 
162 2 1 12.367 45.232 40.110 
163 2 1 11.895 43.535 41.542 
164 2 1 11.841 41.181 42.124 
165 2 1 13.666 39.753 43.394 
166 2 1 15.506 38.532  6.823 
167 2 1 16.483 36.171  7.160 
168 2 1 16.556 34.081  8.169 
169 2 1 15.670 32.163  9.742 
170 2 1 14.911 30.033 10.953 
171 2 1 13.367 28.291 11.468 
172 2 1 11.534 26.665 11.144 
173 2 1  9.137 26.755 11.981 
174 2 1  6.845 26.077 12.890 
175 2 1  4.593 25.219 13.810 
176 2 1  2.325 24.454 14.906 
177 2 1  1.071 22.203 15.036 
178 2 1 -1.242 21.735 14.138 
179 2 1 51.680 21.287 13.614 
180 2 1 49.390 21.510 12.869 
181 2 1 47.355 21.616 11.848 
182 2 1 45.614 20.247 10.452 
183 2 1 43.485 19.587  9.543 
184 2 1 40.912 19.567  9.374 
185 2 1 38.382 19.767  9.178 
186 2 1 35.922 20.120  8.894 
187 2 1 33.751 19.476  8.912 
188 2 1 31.693 19.480 10.084 
189 2 1 30.644 21.843 10.569 
190 2 1 30.460 24.143 10.473 
191 2 1 31.401 26.279  9.532 
192 2 1 31.362 28.537  9.091 
193 2 1 30.557 30.938  9.210 
194 2 1 28.305 32.124  9.403 
195 2 1 26.101 32.542  8.983 
196 2 1 23.940 31.988  7.798 
197 2 1 21.655 31.836  6.739 
198 2 1 19.290 31.732  5.547 
199 2 1 17.173 31.597 41.994 
200 2 1 14.948 31.704 40.785 
201 2 1 12.490 31.859 40.023 
202 2 1 10.413 31.642 41.449 
203 2 1  8.232 31.161 42.750 
204 2 1  6.410 29.540 41.917 
205 2 1  4.468 28.280 40.633 
206 2 1  3.492 26.465 39.481 
207 3 1 32.510  2.365 26.760 
208 3 1 34.549  1.631 25.586 
209 3 1 36.745  1.119 24.250 
210 3 1 38.783  2.741 24.091 
211 3 1 40.329  4.523 24.594 
212 3 1 41.443  6.499 25.769 
213 3 1 42.548  8.597 26.793 
214 3 1 43.459 10.547 28.192 
215 3 1 44.170 12.271 29.951 
216 3 1 45.191 13.871 31.720 
217 3 1 46.197 15.243 33.782 
218 3 1 44.393 16.280 34.675 
219 3 1 41.973 16.102 35.245 
220 3 1 39.531 15.736 35.043 
221 3 1 37.007 15.247 35.039 
222 3 1 34.488 15.069 34.654 
223 3 1 31.964 15.230 34.320 
224 3 1 30.546 13.930 32.536 
225 3 1 29.288 12.872 30.661 
226 3 1 28.796 12.185 28.481 
227 3 1 28.383 12.152 26.188 
228 3 1 27.687 11.888 24.030 
229 3 1 26.643 10.563 22.348 
230 3 1 24.785 10.384 21.077 
231 3 1 22.743 11.352 19.820 
232 3 1 20.301 11.529 20.903 
233 3 1 17.803 11.675 21.550 
234 3 1 16.168 11.295 23.021 
235 3 1 15.542  8.817 22.891 
236 3 1 14.825  6.375 22.770 
237 3 1 14.179  3.811 22.874 
238 3 1 12.756  2.552 24.633 
239 3 1 11.399  1.095 26.325 
240 3 1 11.033  0.428 28.672 
241 3 1 10.839  0.618 31.199 
242 3 1 10.760  1.706 33.573 
243 3 1 11.852  3.781 34.318 
244 3 1 11.992  5.996 34.879 
245 3 1 11.547  8.484 35.200 
246 3 1 11.399 11.079 35.713 
247 3 1 11.570 13.288 36.991 
248 3 1 11.621 15.709 37.830 
249 3 1  9.493 17.133 38.374 
250 3 1  8.487 16.416 40.465 
251 3 1  7.924 13.862 40.703 
252 3 1  7.177 11.436 40.850 
253 3 1  6.094  8.998 41.149 
254 3 1  5.372  6.638 41.580 
255 3 1  2.870  5.777 41.648 
256 3 1  1.904  3.317 41.907 
257 3 1  0.888  0.983 42.352 
258 3 1 -0.277 -1.179 43.200 
259 3 1 -1.616 -3.361  5.900 
260 3 1 -3.147 53.392  6.199 
261 3 1 51.545 51.333  7.184 
262 3 1 51.334 51.512  9.823 
263 3 1 50.367 52.173 11.772 
264 3 1 48.331 52.756 13.182 
265 3 1 45.890 52.952 14.361 
266 3 1 44.000 53.457 13.010 
267 3 1 42.568 -3.960 11.387 
268 3 1 40.847 -3.391  9.826 
269 3 1 38.732 -3.797  8.479 
270 3 1 36.628 -3.941  6.954 
271 3 1 34.318 -3.539  5.662 
272 3 1 32.728 -1.850  6.673 
273 3 1 31.336  0.175  7.531 
274 3 1 29.885  2.205  7.921 
275 3 1 28.442  4.215  8.019 
276 3 1 26.670  6.104  8.009 
277 3 1 24.699  6.483  6.315 
278 3 1 22.673  6.558 42.641 
279 3 1 20.932  6.214 40.888 
280 3 1 18.884  6.200 39.143 
281 3 1 17.674  5.194 37.327 
282 3 1 15.876  3.259 37.410 
283 3 1 13.979  1.608 37.485 
284 3 1 11.866  0.044 37.761 
285 4 1  1.179 25.865 18.772 
286 4 1 -0.726 24.112 19.231 
287 4 1 -2.383 22.188 19.314 
288 4 1 52.097 20.041 18.696 
289 4 1 51.715 17.701 17.571 
290 4 1 51.330 15.352 16.651 
291 4 1 50.581 13.036 15.779 
292 4 1 49.885 10.627 15.203 
293 4 1 50.455  8.477 15.631 
294 4 1 51.634  6.480 16.767 
295 4 1 52.741  4.382 17.816 
296 4 1 -2.040  2.532 19.332 
297 4 1 -1.786  3.532 21.705 
298 4 1 -1.365  4.652 24.021 
299 4 1 -1.322  5.644 26.415 
300 4 1 -2.201  6.927 27.965 
301 4 1 52.401  8.934 28.865 
302 4 1 52.488 11.162 30.140 
303 4 1 52.278 13.441 31.256 
304 4 1 52.258 15.558 32.695 
305 4 1 -1.307 17.451 32.677 
306 4 1  0.533 19.241 33.159 
307 4 1  2.334 20.913 33.746 
308 4 1  2.304 23.430 33.556 
309 4 1  2.253 26.028 33.399 
310 4 1  1.687 27.669 35.360 
311 4 1  0.888 29.229 37.142 
312 4 1 -0.110 30.788 38.920 
313 4 1  1.840 31.985 39.622 
314 4 1  3.986 33.399 39.467 
315 4 1  6.285 34.377 39.404 
316 4 1  8.732 35.216 39.358 
317 4 1 11.224 35.796 39.409 
318 4 1 13.815 36.232 39.601 
319 4 1 16.250 36.415 40.239 
320 4 1 18.665 36.664 41.103 
321 4 1 21.004 36.919 42.326 
322 4 1 23.223 37.462 43.500 
323 4 1 25.205 37.989  7.117 
324 4 1 27.607 36.965  7.349 
325 4 1 29.822 35.813  7.646 
326 4 1 31.994 34.577  7.895 
327 4 1 34.211 34.182  7.228 
328 4 1 35.994 34.149  5.296 
329 4 1 37.821 33.865 41.392 
330 4 1 39.502 33.796 39.502 
331 4 1 40.542 33.099 37.501 
332 4 1 40.152 31.491 35.901 
333 4 1 38.541 30.212 34.350 
334 4 1 36.878 28.599 33.099 
335 4 1 35.205 27.046 32.013 
336 4 1 33.497 25.445 30.972 
337 4 1 31.708 23.693 30.187 
338 4 1 29.867 22.420 29.057 
339 4 1 27.722 21.439 28.046 
340 4 1 25.448 20.551 27.143 
341 4 1 24.091 20.058 25.276 
342 4 1 23.835 21.781 23.411 
343 4 1 24.047 23.152 21.121 
344 4 1 24.669 24.811 19.593 
345 4 1 26.037 26.827 18.797 
346 4 1 27.364 28.937 18.101 
347 4 1 28.526 31.344 18.059 
348 4 1 29.587 33.133 16.849 
349 4 1 30.211 34.496 14.826 
350 4 1 29.604 36.137 13.364 
351 4 1 28.188 37.919 12.205 
352 4 1 26.485 39.673 11.195 
353 4 1 24.764 41.230  9.960 
354 4 1 23.226 42.943  8.741 
355 4 1 21.974 44.802  7.474 
356 4 1 20.960 46.334  5.623 
357 4 1 20.264 48.501 42.971 
358 4 1 19.757 51.074 43.178 
359 4 1 19.137 53.539 43.364 
360 4 1 17.851 -3.214  6.378 
361 4 1 16.586 -1.295  7.506 
362 4 1 15.307  0.407  8.807 
363 5 1 32.832  3.070 36.954 
364 5 1 33.123  5.582 37.511 
365 5 1 33.088  8.207 37.593 
366 5 1 32.043 10.098 36.923 
367 5 1 29.724 11.104 36.207 
368 5 1 27.579 12.158 35.386 
369 5 1 25.975 13.882 34.781 
370 5 1 25.178 16.121 34.206 
371 5 1 24.247 18.436 33.551 
372 5 1 25.408 20.772 33.880 
373 5 1 26.617 22.973 34.107 
374 5 1 27.772 25.288 33.957 
375 5 1 29.284 27.227 33.060 
376 5 1 30.738 29.184 32.035 
377 5 1 32.274 31.066 31.145 
378 5 1 33.758 32.993 30.128 
379 5 1 35.601 34.374 28.919 
380 5 1 37.880 34.973 27.748 
381 5 1 39.930 35.474 26.250 
382 5 1 41.805 36.644 25.640 
383 5 1 43.884 37.408 26.176 
384 5 1 46.277 37.030 26.085 
385 5 1 48.613 36.507 24.932 
386 5 1 50.588 37.257 23.997 
387 5 1 52.498 37.804 22.884 
388 5 1 -0.764 37.526 21.388 
389 5 1  0.230 35.521 20.094 
390 5 1  1.450 33.477 19.119 
391 5 1  2.422 31.384 18.164 
392 5 1  3.662 31.452 16.226 
393 5 1  2.728 30.063 14.308 
394 5 1  1.527 28.667 12.439 
395 5 1  0.136 26.878 11.290 
396 5 1 -1.199 24.874 10.443 
397 5 1 -2.376 23.086  9.028 
398 5 1 -3.554 21.169  7.652 
399 5 1 50.832 19.495  5.834 
400 5 1 48.236 19.019  5.612 
401 5 1 45.686 18.996  5.600 
402 5 1 43.179 19.021  5.362 
403 5 1 40.703 19.105 42.706 
404 5 1 38.417 18.687 42.848 
405 5 1 36.290 17.344 43.361 
406 5 1 34.042 16.199  6.324 
407 5 1 31.737 15.682  7.404 
408 5 1 29.372 15.008  8.164 
409 5 1 28.972 13.886 10.427 
410 5 1 27.725 11.688 10.800 
411 5 1 28.100  9.823 12.471 
412 5 1 28.399  7.640 13.714 
413 5 1 29.573  5.953 14.717 
414 5 1 31.458  4.766 15.946 
415 5 1 34.095  5.070 16.156 
416 5 1 36.363  5.147 15.652 
417 5 1 38.467  5.264 14.134 
418 5 1 38.295  5.254 11.557 
419 5 1 38.024  5.338  9.006 
420 5 1 36.892  5.711  6.994 
421 5 1 34.780  6.243  5.700 
422 5 1 32.312  6.236 42.836 
423 5 1 29.929  6.379 41.992 
424 5 1 28.080  6.943 40.438 
425 5 1 26.530  6.913 38.423 
426 5 1 24.840  6.598 36.427 
427 5 1 25.328  5.338 34.127 
428 5 1 25.516  2.954 33.658 
429 5 1 26.464  0.629 33.348 
430 5 1 27.622 -1.599 33.050 
431 5 1 29.073 -3.641 32.564 
432 5 1 30.432 53.117 31.840 
433 5 1 31.699 50.957 31.198 
434 5 1 33.513 49.604 32.620 
435 5 1 36.022 49.599 32.090 
436 5 1 38.458 49.941 31.664 
437 5 1 39.864 48.504 30.122 
438 5 1 40.704 46.248 30.987 
439 5 1 41.478 43.897 31.169 
440 5 1 43.130 42.660 29.732 
441 6 1 20.260  6.259 32.533 
442 6 1 20.502  7.631 34.641 
443 6 1 21.169  9.053 36.689 
444 6 1 21.742 10.714 38.575 
445 6 1 24.063 11.686 39.053 
446 6 1 26.391 12.468 39.725 
447 6 1 28.571 13.628 39.983 
448 6 1 30.587 15.111 39.759 
449 6 1 32.689 16.423 39.403 
450 6 1 34.994 17.489 38.904 
451 6 1 37.364 18.113 38.358 
452 6 1 37.962 20.333 38.336 
453 6 1 38.484 22.462 39.092 
454 6 1 39.625 23.872 40.446 
455 6 1 40.615 24.667 42.672 
456 6 1 41.891 25.366  6.818 
457 6 1 40.691 25.318  8.978 
458 6 1 40.588 27.483 10.374 
459 6 1 40.402 27.485 12.636 
460 6 1 41.442 28.641 14.701 
461 6 1 42.162 29.520 16.998 
462 6 1 42.218 30.686 19.005 
463 6 1 42.318 31.957 20.971 
464 6 1 43.686 33.627 22.511 
465 6 1 45.726 34.548 21.537 
466 6 1 47.219 35.987 20.012 
467 6 1 48.329 38.316 19.155 
468 6 1 49.723 40.280 18.862 
469 6 1 51.978 41.247 19.726 
470 6 1 -1.133 42.348 20.413 
471 6 1  0.961 43.641 21.070 
472 6 1  3.080 42.450 21.918 
473 6 1  5.431 42.953 21.012 
474 6 1  7.102 43.631 19.445 
475 6 1  6.289 45.770 18.227 
476 6 1  5.186 46.968 16.575 
477 6 1  3.785 47.222 14.453 
478 6 1  2.244 47.427 12.376 
479 6 1  0.601 47.809 10.489 
480 6 1  0.956 47.271  8.081 
481 6 1  1.057 46.564  5.557 
482 6 1 -0.329 47.409 41.514 
483 6 1 -2.617 47.421 41.418 
484 6 1 50.453 48.265 42.180 
485 6 1 48.065 48.848 42.913 
486 6 1 47.358 49.395  7.444 
487 6 1 46.629 48.537  9.766 
488 6 1 46.087 48.354 12.279 
489 6 1 45.834 48.343 14.887 
490 6 1 45.935 49.453 16.931 
491 6 1 46.112 51.426 18.489 
492 6 1 46.250 53.436 19.991 
493 6 1 47.245 -4.353 21.768 
494 6 1 48.911 -2.854 21.161 
495 6 1 49.860 -0.683 20.217 
496 6 1 48.884  1.407 19.024 
497 6 1 47.911  3.392 17.700 
498 6 1 46.953  5.665 16.966 
499 6 1 45.358  7.163 16.276 
500 6 1 42.990  7.484 15.608 
501 6 1 40.885  8.408 15.988 
502 6 1 40.055  8.215 18.406 
503 6 1 39.127  7.125 20.199 
504 6 1 37.216  5.792 21.343 
505 6 1 35.488  5.876 22.973 
506 6 1 34.072  6.712 24.985 
507 6 1 34.985  6.451 27.064 
508 6 1 35.934  5.406 29.246 
509 6 1 37.999  4.145 29.125 
510 6 1 40.105  5.202 30.272 
511 6 1 42.027  6.273 31.497 
512 6 1 43.703  7.711 32.785 
513 6 1 45.406  9.355 33.777 
514 6 1 47.205 10.953 34.665 
515 6 1 49.203 12.293 35.578 
516 6 1 50.952 13.937 36.542 
517 6 1 52.250 15.112 38.157 
518 6 1 -1.815 15.631 40.327 
519 7 1 18.485 41.290 41.503 
520 7 1 16.464 41.127 40.307 
521 7 1 15.329 40.482 38.161 
522 7 1 13.618 39.802 36.678 
523 7 1 11.540 40.930 37.375 
524 7 1  9.799 42.821 37.609 
525 7 1  7.887 44.655 37.555 
526 7 1  8.401 47.256 37.568 
527 7 1  8.574 48.221 35.225 
528 7 1  8.366 49.319 32.902 
529 7 1  7.790 49.911 30.430 
530 7 1  7.191 50.373 27.921 
531 7 1  6.668 50.868 25.403 
532 7 1  6.313 53.097 25.136 
533 7 1  8.581 54.201 24.615 
534 7 1  9.888 -4.788 26.508 
535 7 1 11.351 52.609 28.114 
536 7 1 12.967 52.507 29.767 
537 7 1 13.936 53.418 31.931 
538 7 1 15.436 53.688 33.679 
539 7 1 17.451 53.093 35.168 
540 7 1 19.354 52.774 36.901 
541 7 1 21.125 52.494 38.855 
542 7 1 22.898 51.666 40.649 
543 7 1 24.781 51.303 42.287 
544 7 1 26.571 50.899  6.073 
545 7 1 27.309 50.471  8.218 
546 7 1 28.008 50.728 10.413 
547 7 1 28.799 50.970 12.563 
548 7 1 28.387 50.724 15.106 
549 7 1 27.824 50.487 17.576 
550 7 1 26.133 51.859 18.892 
551 7 1 24.344 52.976 20.420 
552 7 1 22.651 -4.852 22.126 
553 7 1 20.998 -3.716 23.770 
554 7 1 19.247 -2.653 25.483 
555 7 1 17.362 -1.624 26.875 
556 7 1 15.939 -0.005 27.651 
557 7 1 15.334  2.515 28.085 
558 7 1 14.476  4.905 27.820 
559 7 1 13.261  7.080 27.478 
560 7 1 13.934  9.518 27.801 
561 7 1 15.399 11.107 28.374 
562 7 1 17.837 12.092 28.336 
563 7 1 20.071 13.423 28.213 
564 7 1 22.220 14.778 28.345 
565 7 1 24.527 15.887 28.835 
566 7 1 26.732 16.958 29.783 
567 7 1 28.983 18.104 30.461 
568 7 1 31.375 17.266 29.838 
569 7 1 33.586 16.240 29.322 
570 7 1 35.571 16.147 30.841 
571 7 1 37.932 15.424 29.874 
572 7 1 40.081 16.819 30.087 
573 7 1 42.014 18.479 30.657 
574 7 1 43.986 20.015 30.852 
575 7 1 45.084 20.825 33.016 
576 7 1 46.261 23.010 33.417 
577 7 1 47.523 25.080 34.299 
578 7 1 48.887 27.060 35.137 
579 7 1 50.862 26.582 36.594 
580 7 1 53.043 25.386 37.249 
581 7 1 -2.239 23.343 36.150 
582 7 1 -3.589 21.401 35.333 
583 7 1 49.987 20.057 36.780 
584 7 1 48.109 18.854 38.091 
585 7 1 46.141 17.347 38.995 
586 7 1 44.137 15.859 39.673 
587 7 1 43.698 13.574 38.982 
588 7 1 44.512 11.131 38.575 
589 7 1 42.697  9.687 39.103 
590 7 1 42.195  7.974 37.631 
591 7 1 41.757  5.697 36.664 
592 7 1 41.096  3.486 35.612 
593 7 1 41.163  1.477 34.204 
594 7 1 41.557 -0.256 32.322 
595 7 1 41.798  0.361 29.960 
596 7 1 39.820 -0.529 28.520 
597 8 1 38.466 39.637 29.351 
598 8 1 39.103 38.673 31.636 
599 8 1 39.252 37.378 33.584 
600 8 1 37.641 36.222 34.740 
601 8 1 35.335 35.323 35.616 
602 8 1 33.371 34.006 34.439 
603 8 1 31.062 34.589 33.451 
604 8 1 29.322 35.945 32.499 
605 8 1 28.211 37.708 34.123 
606 8 1 27.007 39.921 33.578 
607 8 1 28.088 42.006 33.481 
608 8 1 29.541 43.867 32.448 
609 8 1 30.808 45.747 31.286 
610 8 1 29.654 47.638 29.967 
611 8 1 28.129 49.389 29.402 
612 8 1 26.276 51.102 29.928 
613 8 1 25.043 51.669 32.092 
614 8 1 24.797 52.039 34.340 
615 8 1 25.558 52.117 36.763 
616 8 1 27.840 51.770 37.752 
617 8 1 28.431 50.440 39.855 
618 8 1 29.255 48.365 40.614 
619 8 1 30.157 46.058 40.551 
620 8 1 31.150 43.700 40.718 
621 8 1 31.952 41.234 41.252 
622 8 1 32.685 38.951 42.285 
623 8 1 32.790 36.824 41.287 
624 8 1 32.480 35.212 39.725 
625 8 1 32.934 33.007 40.401 
626 8 1 32.364 30.752 41.367 
627 8 1 31.870 28.413 42.195 
628 8 1 31.081 25.947 42.698 
629 8 1 30.021 23.611  5.599 
630 8 1 27.753 23.056  6.689 
631 8 1 25.668 22.397  8.001 
632 8 1 25.584 20.322  9.480 
633 8 1 25.571 17.904 10.512 
634 8 1 24.881 15.734  9.273 
635 8 1 24.119 13.564  8.271 
636 8 1 23.994 11.765  6.663 
637 8 1 26.132 10.385  6.526 
638 8 1 28.503 11.066  5.565 
639 8 1 30.872 11.743 43.021 
640 8 1 33.334 12.139 42.252 
641 8 1 35.814 12.477 42.221 
642 8 1 36.247 11.565  6.647 
643 8 1 36.202 10.632  8.959 
644 8 1 36.243  9.607 11.362 
645 8 1 36.318  9.779 13.718 
646 8 1 36.459 10.827 16.001 
647 8 1 36.323 10.481 18.289 
648 8 1 34.536  9.107 19.594 
649 8 1 32.440  8.078 20.699 
650 8 1 31.700  5.659 20.780 
651 8 1 31.145  3.225 20.700 
652 8 1 30.979  0.703 20.687 
653 8 1 31.303 -0.846 22.612 
654 8 1 32.864 -2.018 23.818 
655 8 1 35.257 -2.746 24.524 
656 8 1 37.456 -3.766 25.324 
657 8 1 39.338 -2.878 23.947 
658 8 1 40.893 -1.220 22.680 
659 8 1 42.671 -0.753 21.367 
660 8 1 43.974 -1.217 19.241 
661 8 1 45.471 -1.953 17.326 
662 8 1 47.502 -2.394 16.399 
663 8 1 49.871 -2.245 16.328 
664 8 1 52.143 -2.363 15.973 
665 8 1 -2.280 -2.910 18.118 
666 8 1 -1.612 -2.118 20.570 
667 8 1 -0.573 -1.655 22.862 
668 8 1  1.323  0.064 23.081 
669 8 1  2.728  2.241 23.150 
670 8 1  3.928  4.565 22.931 
671 8 1  4.683  7.068 22.722 
672 8 1  4.757  9.071 21.619 
673 8 1  3.983 10.574 19.716 
674 8 1  1.648 10.615 18.463 
675 9 1 43.343 -0.462 39.020 
676 9 1 42.500  1.774 40.009 
677 9 1 41.423  3.863 41.229 
678 9 1 40.531  6.155 42.074 
679 9 1 39.856  8.599 42.658 
680 9 1 40.453  8.964  7.108 
681 9 1 41.836  8.841  9.335 
682 9 1 43.871  7.352  9.977 
683 9 1 46.179  6.181 10.271 
684 9 1 47.624  4.488 11.104 
685 9 1 48.549  2.770 12.732 
686 9 1 50.547  2.158 13.857 
687 9 1 -2.240  2.312 13.673 
688 9 1  0.328  2.675 13.548 
689 9 1  2.521  1.939 13.589 
690 9 1  4.324  0.142 14.159 
691 9 1  4.202 -2.434 13.455 
692 9 1  5.431 -4.335 14.588 
693 9 1  6.581 52.325 15.499 
694 9 1  8.345 51.063 16.342 
695 9 1 10.288 49.910 16.795 
696 9 1 10.958 48.083 18.151 
697 9 1 10.916 46.830 20.394 
698 9 1 10.997 44.890 21.681 
699 9 1 11.455 42.333 22.099 
700 9 1 12.387 40.146 22.773 
701 9 1 13.629 38.572 24.004 
702 9 1 15.149 37.607 25.900 
703 9 1 15.975 38.776 27.949 
704 9 1 16.895 40.650 29.080 
705 9 1 18.876 42.216 29.076 
706 9 1 20.883 43.240 28.224 
707 9 1 22.959 44.093 27.861 
708 9 1 25.146 44.656 28.069 
709 9 1 27.546 44.379 27.461 
710 9 1 29.835 44.133 26.298 
711 9 1 31.704 42.326 26.092 
712 9 1 33.424 40.779 26.747 
713 9 1 34.723 39.331 28.420 
714 9 1 34.247 39.096 31.027 
715 9 1 33.028 39.471 33.065 
716 9 1 31.932 39.556 35.181 
717 9 1 30.652 39.137 37.324 
718 9 1 28.877 38.867 39.042 
719 9 1 26.702 38.867 40.495 
720 9 1 24.995 37.332 39.430 
721 9 1 23.898 35.812 37.615 
722 9 1 23.276 33.591 37.976 
723 9 1 22.644 31.453 39.119 
724 9 1 22.668 29.830 40.749 
725 9 1 21.314 27.872 40.633 
726 9 1 21.628 26.525 42.468 
727 9 1 21.930 25.583  6.629 
728 9 1 23.805 26.869  7.783 
729 9 1 26.046 27.983  8.499 
730 9 1 27.457 27.737  6.565 
731 9 1 27.715 30.041  5.381 
732 9 1 27.689 32.513 42.384 
733 9 1 28.235 33.324 40.063 
734 9 1 28.518 33.057 37.836 
735 9 1 28.458 31.713 35.652 
736 9 1 26.539 31.772 34.366 
737 9 1 24.775 32.481 32.681 
738 9 1 23.873 34.905 32.447 
739 9 1 21.508 35.290 31.720 
740 9 1 20.826 35.836 29.283 
741 9 1 21.884 37.748 28.756 
742 9 1 24.105 38.974 28.041 
743 9 1 26.299 40.309 27.711 
744 9 1 28.442 40.261 29.123 
745 9 1 30.253 38.666 29.196 
746 9 1 29.550 36.350 28.277 
747 9 1 29.437 33.927 27.667 
748 9 1 28.792 31.706 27.886 
749 9 1 27.428 29.722 28.890 
750 9 1 25.652 28.229 29.958 
751 9 1 24.307 26.498 31.343 
752 9 1 23.192 24.324 31.652 
753 10 1 17.785 -4.189 12.072 
754 10 1 18.986 -4.880 14.274 
755 10 1 21.519 -4.461 14.889 
756 10 1 23.989 -3.881 15.424 
757 10 1 25.702 -4.304 13.832 
758 10 1 26.642 -4.035 11.519 
759 10 1 27.324 -3.492  9.109 
760 10 1 26.767 -1.264  7.924 
761 10 1 25.477  0.545  7.258 
762 10 1 23.125  1.740  7.298 
763 10 1 21.253  1.199  5.576 
764 10 1 18.867  2.026 42.995 
765 10 1 17.434  1.410 40.922 
766 10 1 15.841 -0.627 40.755 
767 10 1 15.424 -2.901 40.613 
768 10 1 16.047 -5.335 40.504 
769 10 1 16.669 51.041 40.143 
770 10 1 17.725 48.845 39.498 
771 10 1 18.145 46.685 38.820 
772 10 1 18.165 44.340 38.599 
773 10 1 20.104 43.405 37.206 
774 10 1 22.437 43.011 37.968 
775 10 1 24.514 42.923 39.175 
776 10 1 26.046 42.724 41.220 
777 10 1 27.551 42.271 43.199 
778 10 1 29.193 41.359  6.992 
779 10 1 30.983 40.341  8.572 
780 10 1 32.869 38.818  9.505 
781 10 1 34.657 37.278 10.516 
782 10 1 36.475 35.618 11.103 
783 10 1 38.278 33.956 11.926 
784 10 1 39.070 33.400 14.355 
785 10 1 38.129 31.498 15.841 
786 10 1 37.446 29.473 17.340 
787 10 1 37.758 29.032 19.880 
788 10 1 37.496 26.971 21.555 
789 10 1 38.851 24.910 22.429 
790 10 1 41.085 25.279 23.304 
791 10 1 43.433 26.180 23.339 
792 10 1 45.001 27.933 23.273 
793 10 1 46.485 29.860 23.382 
794 10 1 48.741 31.004 23.750 
795 10 1 50.445 31.693 22.106 
796 10 1 51.284 32.917 20.287 
797 10 1 51.693 34.775 18.627 
798 10 1 -3.050 36.644 17.012 
799 10 1 -2.363 38.455 15.281 
800 10 1 -0.900 40.079 14.240 
801 10 1  0.390 41.764 15.648 
802 10 1  2.551 41.269 16.942 
803 10 1  4.105 39.892 17.801 
804 10 1  4.719 37.465 18.281 
805 10 1  5.620 35.143 19.142 
806 10 1  6.293 32.781 20.031 
807 10 1  6.587 30.609 21.255 
808 10 1  6.065 28.602 22.723 
809 10 1  5.670 26.295 23.821 
810 10 1  3.417 25.026 23.707 
811 10 1  1.140 23.870 23.319 
812 10 1 -1.211 22.931 23.085 
813 10 1 -1.908 20.629 23.972 
814 10 1 -2.073 18.143 24.493 
815 10 1 -3.118 16.491 22.876 
816 10 1 50.949 15.064 21.326 
817 10 1 48.509 15.765 21.339 
818 10 1 46.061 16.499 21.454 
819 10 1 44.145 15.541 20.085 
820 10 1 42.188 14.581 18.714 
821 10 1 41.030 13.116 17.065 
822 10 1 42.785 12.366 15.257 
823 10 1 44.685 11.700 13.683 
824 10 1 46.615 11.321 12.100 
825 10 1 48.619 11.085 10.586 
826 10 1 50.475  9.322 10.316 
827 10 1 52.275  7.567 10.036 
828 10 1 -1.301  5.680  9.749 
829 10 1 -2.417  4.059  8.502 
830 10 1 50.969  2.543  7.970 
831 11 1 26.886 13.482 15.217 
832 11 1 27.985 15.881 14.825 
833 11 1 29.569 17.478 15.579 
834 11 1 29.486 18.554 17.871 
835 11 1 29.886 19.704 20.217 
836 11 1 29.905 21.644 21.339 
837 11 1 29.724 24.217 21.630 
838 11 1 30.049 26.689 22.175 
839 11 1 29.659 29.142 22.871 
840 11 1 29.323 31.584 23.335 
841 11 1 28.600 34.049 23.393 
842 11 1 27.462 35.507 21.572 
843 11 1 26.395 37.014 19.790 
844 11 1 27.842 37.925 18.210 
845 11 1 29.805 38.469 17.276 
846 11 1 31.725 37.817 18.818 
847 11 1 33.514 36.509 18.482 
848 11 1 34.886 34.626 18.111 
849 11 1 33.976 32.268 18.441 
850 11 1 32.969 30.004 18.382 
851 11 1 32.442 27.469 18.183 
852 11 1 32.380 24.933 17.557 
853 11 1 32.375 22.539 16.718 
854 11 1 32.989 20.214 15.818 
855 11 1 35.344 20.373 15.334 
856 11 1 37.525 21.160 14.384 
857 11 1 39.846 21.870 13.570 
858 11 1 41.922 23.233 13.272 
859 11 1 43.957 24.873 13.082 
860 11 1 45.586 25.443 11.088 
861 11 1 46.361 25.477  8.877 
862 11 1 46.843 24.492  6.573 
863 11 1 46.904 24.510 42.147 
864 11 1 45.080 23.739 40.741 
865 11 1 43.523 22.219 39.217 
866 11 1 43.316 21.996 36.647 
867 11 1 41.172 21.361 35.326 
868 11 1 39.300 20.406 33.732 
869 11 1 37.115 19.678 33.123 
870 11 1 34.720 19.426 33.658 
871 11 1 32.412 19.380 34.654 
872 11 1 30.207 19.145 35.907 
873 11 1 27.898 19.004 37.215 
874 11 1 25.546 18.669 38.385 
875 11 1 23.531 17.418 38.970 
876 11 1 21.616 15.673 38.951 
877 11 1 19.643 14.599 38.320 
878 11 1 17.477 15.169 37.061 
879 11 1 15.335 15.818 35.831 
880 11 1 14.675 15.776 33.351 
881 11 1 14.064 15.790 30.870 
882 11 1 14.165 17.833 29.281 
883 11 1 14.953 19.848 28.572 
884 11 1 16.084 22.041 29.108 
885 11 1 18.310 22.226 29.646 
886 11 1 19.626 23.462 27.808 
887 11 1 20.795 25.277 26.996 
888 11 1 21.572 27.745 27.286 
889 11 1 22.533 29.990 27.906 
890 11 1 23.365 32.067 27.707 
891 11 1 23.681 34.148 26.265 
892 11 1 23.561 35.980 24.291 
893 11 1 21.806 37.872 24.147 
894 11 1 19.492 39.146 24.249 
895 11 1 18.154 40.540 22.443 
896 11 1 16.770 41.803 20.752 
897 11 1 15.532 42.988 18.902 
898 11 1 13.919 44.090 17.238 
899 11 1 12.110 44.790 15.455 
900 11 1 10.807 45.161 13.354 
901 11 1  9.259 46.969 12.704 
902 11 1  7.896 48.960 11.829 
903 11 1  6.313 50.856 11.250 
904 11 1  4.623 51.016  9.289 
905 11 1  3.157 51.421  7.171 
906 11 1  1.721 51.874  5.069 
907 11 1  0.255 52.258 40.973 
908 11 1 -1.825 52.367 39.921 
909 12 1  2.247 42.483  8.379 
910 12 1  2.908 42.684  5.935 
911 12 1  3.771 42.967 41.424 
912 12 1  3.576 45.072 39.928 
913 12 1  3.402 46.900 38.128 
914 12 1  3.323 48.548 36.044 
915 12 1  3.159 50.026 33.904 
916 12 1  4.541 51.929 33.995 
917 12 1  3.389 54.295 34.020 
918 12 1  1.940 -4.524 35.850 
919 12 1 -0.526 -4.959 35.131 
920 12 1 -1.312 51.585 34.883 
921 12 1 -1.112 49.127 33.906 
922 12 1 -0.518 46.911 32.639 
923 12 1  0.328 44.736 31.447 
924 12 1  0.973 42.588 31.437 
925 12 1  2.291 40.586 32.276 
926 12 1  3.181 38.388 33.180 
927 12 1  3.768 36.045 34.286 
928 12 1  4.171 33.771 34.233 
929 12 1  5.003 31.523 34.305 
930 12 1  6.442 29.652 35.451 
931 12 1  7.356 27.559 35.432 
932 12 1  7.419 25.157 34.562 
933 12 1  7.001 22.876 34.805 
934 12 1  6.538 20.789 36.283 
935 12 1  6.285 18.546 36.685 
936 12 1  6.203 16.004 35.991 
937 12 1  5.975 13.774 36.461 
938 12 1  5.000 11.515 37.238 
939 12 1  4.733  8.957 37.111 
940 12 1  4.824  6.441 36.883 
941 12 1  3.066  4.804 35.912 
942 12 1  1.426  3.142 36.128 
943 12 1  2.022  0.857 37.200 
944 12 1  0.430 -0.970 38.006 
945 12 1 -1.805 -1.498 38.301 
946 12 1 51.534 -1.794 39.370 
947 12 1 49.816 -2.364 40.860 
948 12 1 47.612 -2.166 42.142 
949 12 1 45.155 -1.813 42.935 
950 12 1 42.917 -2.249  5.091 
951 12 1 40.733 -3.355 42.300 
952 12 1 39.981 -4.585 40.167 
953 12 1 40.270 52.831 38.386 
954 12 1 41.721 51.415 36.828 
955 12 1 41.878 49.868 35.209 
956 12 1 41.685 47.296 35.668 
957 12 1 41.599 45.161 36.661 
958 12 1 42.293 43.594 38.553 
959 12 1 43.774 42.056 39.794 
960 12 1 45.686 42.624 41.430 
961 12 1 46.333 42.769 43.752 
962 12 1 45.709 43.282  8.338 
963 12 1 45.395 44.050 10.828 
964 12 1 43.724 43.447 12.693 
965 12 1 41.746 43.110 14.259 
966 12 1 39.750 42.764 15.822 
967 12 1 37.567 42.403 17.182 
968 12 1 35.192 42.163 18.256 
969 12 1 32.549 42.215 18.620 
970 12 1 31.073 43.747 20.099 
971 12 1 29.731 45.370 21.580 
972 12 1 28.045 46.708 23.017 
973 12 1 25.962 47.549 24.333 
974 12 1 25.442 49.817 24.472 
975 12 1 25.193 52.046 25.735 
976 12 1 24.447 54.074 27.074 
977 12 1 23.944 -2.733 28.566 
978 12 1 23.374 -0.749 30.017 
979 12 1 21.831  0.138 31.934 
980 12 1 20.406  1.298 33.808 
981 12 1 21.028  1.948 36.216 
982 12 1 22.161  1.885 38.221 
983 12 1 24.035  1.789 39.955 
984 12 1 26.073  2.408 41.442 
985 12 1 28.389  1.489 41.039 
986 12 1 30.722  0.515 40.440 