LAMMPS data file generated by aa2cg.

2000 atoms
1 atom types
1975 bonds
1 bond types
1950 angles
1 angle types
1925 dihedrals
1 dihedral types

 0.000 36.563 xlo xhi
 0.000 61.819 ylo yhi
 0.000 54.046 zlo zhi

Masses

1 24.022

Atoms # molecular

1 1 1 23.238 31.057 45.481 
2 1 1 23.438 21.302 48.570 
3 2 1 12.861 -2.516  0.243 
4 2 1 35.293 45.153 27.151 
5 3 1  9.936 53.741 14.160 
6 3 1 27.813 18.138 32.789 
7 4 1 42.061 22.726 25.156 
8 4 1 23.963  8.652 11.425 
9 5 1 15.628 53.315 44.991 
10 5 1 21.940 17.451 50.914 
11 6 1 41.204  9.129 11.414 
12 6 1 29.837 30.287 39.588 
13 7 1 14.873 15.751 38.435 
14 7 1  6.551 48.819 20.348 
15 8 1 32.328 38.474 34.675 
16 8 1 31.612 34.426 28.008 
17 9 1 25.823 52.691 26.010 
18 9 1 37.421 53.374  3.989 
19 10 1 25.644 -1.724  0.751 
20 10 1 11.657 31.516 10.237 
21 11 1 29.560 22.515 -1.901 
22 11 1 33.362 40.390 27.800 
23 12 1 18.325 54.530 48.631 
24 12 1 35.099 -2.853 25.684 
25 13 1 24.082 49.667 29.361 
26 13 1 40.607 30.822 29.990 
27 14 1 14.775 22.471 51.693 
28 14 1 14.261 18.921  2.465 
29 15 1 40.842 18.890 32.878 
30 15 1 27.852 45.461 13.799 
31 16 1 40.049 46.133 39.745 
32 16 1 22.098 34.069 39.254 
33 17 1 41.726 44.108 30.780 
34 17 1 21.314 34.509  0.946 
35 18 1 35.104 15.554 18.900 
36 18 1 39.085 54.736 23.877 
37 19 1 25.403 44.063 38.261 
38 19 1 32.196 50.776 45.618 
39 20 1  8.946 15.295 -0.584 
40 20 1 12.043 36.194 17.148 
41 21 1 35.739 25.211 11.653 
42 21 1 17.021  4.332  8.156 
43 22 1 28.020 28.068 13.029 
44 22 1 14.714 22.354  6.587 
45 23 1 19.995 -0.884 29.559 
46 23 1 11.432 42.073 41.017 
47 24 1 13.081  5.007 11.474 
48 24 1 11.025 45.002 16.755 
49 25 1 35.968  0.692 21.691 
50 25 1 40.921 25.809 50.593 
51 1 1 22.076 30.738 43.344 
52 1 1 20.915 29.345 41.678 
53 1 1 19.692 27.672 40.142 
54 1 1 17.944 26.904 38.692 
55 1 1 15.594 27.408 39.552 
56 1 1 13.652 27.501 37.932 
57 1 1 12.064 26.890 36.265 
58 1 1 10.842 25.827 34.302 
59 1 1  9.399 24.842 32.471 
60 1 1  8.958 22.350 31.735 
61 1 1  8.865 19.797 31.106 
62 1 1  8.864 17.323 30.602 
63 1 1  9.311 14.870 30.097 
64 1 1  9.462 12.329 29.298 
65 1 1 11.720 11.698 29.009 
66 1 1 14.141 11.969 29.943 
67 1 1 16.463 12.441 31.120 
68 1 1 17.348 11.442 33.303 
69 1 1 17.996 11.595 35.791 
70 1 1 18.887 11.730 38.266 
71 1 1 19.507 12.175 40.740 
72 1 1 20.022 12.388 43.346 
73 1 1 20.388 12.882 45.870 
74 1 1 20.753 12.656 48.318 
75 1 1 21.384 12.682 50.853 
76 1 1 21.574 11.644 -1.103 
77 1 1 21.318 10.901  1.036 
78 1 1 20.770 11.210  3.482 
79 1 1 19.618 13.343  4.265 
80 1 1 18.781 15.618  4.962 
81 1 1 18.553 16.503  7.388 
82 1 1 20.031 18.479  8.322 
83 1 1 21.541 20.417  9.175 
84 1 1 23.473 21.458  9.942 
85 1 1 24.017 21.429 12.201 
86 1 1 23.699 22.362 14.550 
87 1 1 24.812 24.306 15.895 
88 1 1 25.373 26.331 17.299 
89 1 1 26.340 28.264 18.016 
90 1 1 25.429 30.337 16.749 
91 1 1 23.917 31.149 15.277 
92 1 1 22.518 31.103 13.082 
93 1 1 23.120 32.125 10.955 
94 1 1 23.491 34.011  9.220 
95 1 1 23.945 35.627  7.247 
96 1 1 24.637 35.981  4.914 
97 1 1 25.354 34.610  2.959 
98 1 1 26.004 33.309  0.901 
99 1 1 27.453 32.622 -0.749 
100 1 1 29.661 32.734 -2.064 
101 1 1 31.694 33.125 50.517 
102 1 1 33.543 32.905 49.111 
103 1 1 35.126 31.604 47.610 
104 1 1 37.389 30.462 47.989 
105 1 1 38.823 29.508 46.082 
106 1 1 39.891 28.698 43.900 
107 1 1 42.368 27.700 43.694 
108 1 1 42.696 25.494 44.535 
109 1 1 42.677 23.475 46.160 
110 1 1 42.581 21.253 47.533 
111 1 1  7.414 20.388 49.394 
112 1 1  8.787 19.971 51.200 
113 1 1 10.493 20.162 -0.940 
114 1 1 10.539 21.402  1.328 
115 1 1 10.634 22.666  3.563 
116 1 1  9.649 24.220  4.968 
117 1 1  7.519 25.595  5.319 
118 1 1 41.876 25.817  5.752 
119 1 1 39.543 25.070  6.128 
120 1 1 37.048 24.204  5.977 
121 1 1 34.695 24.105  6.042 
122 1 1 32.536 24.544  5.629 
123 1 1 30.486 24.241  4.274 
124 1 1 28.636 23.569  2.679 
125 1 1 26.627 22.602  1.579 
126 1 1 24.470 21.804  0.560 
127 1 1 22.742 22.220 -0.807 
128 1 1 23.961 22.082 -2.953 
129 2 1 10.829 -2.971  1.685 
130 2 1 10.696 -2.585  4.237 
131 2 1 11.459 -2.630  6.692 
132 2 1 10.991 -4.683  7.884 
133 2 1 10.430 55.140  8.839 
134 2 1 10.335 53.113 10.070 
135 2 1 10.955 50.672 10.669 
136 2 1 11.996 48.466 11.697 
137 2 1 13.040 46.383 12.645 
138 2 1 14.108 44.147 13.271 
139 2 1 14.313 41.929 11.992 
140 2 1 14.375 39.729 10.617 
141 2 1 14.341 37.874  8.791 
142 2 1 14.319 35.821  7.162 
143 2 1 14.290 33.822  5.550 
144 2 1 13.810 32.194  3.645 
145 2 1 15.265 31.945  1.499 
146 2 1 15.192 30.170 -0.400 
147 2 1 15.068 28.778 -2.512 
148 2 1 15.107 27.188 49.635 
149 2 1 16.913 25.503 49.285 
150 2 1 18.672 23.854 48.247 
151 2 1 17.734 21.694 48.499 
152 2 1 18.881 20.240 50.430 
153 2 1 18.733 20.421 -1.037 
154 2 1 18.005 20.494  1.428 
155 2 1 17.813 20.946  4.002 
156 2 1 19.843 21.265  4.797 
157 2 1 22.150 22.379  4.868 
158 2 1 24.206 23.714  5.566 
159 2 1 25.105 25.924  6.535 
160 2 1 26.029 28.181  7.551 
161 2 1 26.910 30.291  8.656 
162 2 1 28.354 32.028  7.450 
163 2 1 29.655 33.799  6.105 
164 2 1 29.996 36.267  6.767 
165 2 1 31.085 37.956  7.961 
166 2 1 32.971 39.146  9.343 
167 2 1 35.324 38.263  9.585 
168 2 1 37.230 39.943 10.149 
169 2 1 39.158 41.474 10.773 
170 2 1 41.200 42.993 11.312 
171 2 1 43.403 44.259 11.969 
172 2 1  9.174 43.725 10.828 
173 2 1 10.408 42.418  9.544 
174 2 1 10.855 40.253  8.135 
175 2 1 10.972 38.314  6.419 
176 2 1  9.385 36.574  5.253 
177 2 1  7.683 34.887  4.292 
178 2 1  8.049 32.269  4.027 
179 2 1  9.221 30.330  4.487 
180 2 1 11.074 28.938  5.532 
181 2 1 12.641 27.753  7.302 
182 2 1 13.902 26.924  9.316 
183 2 1 15.327 26.651 11.418 
184 2 1 15.817 26.916 13.671 
185 2 1 16.602 29.244 14.437 
186 2 1 17.439 31.607 15.329 
187 2 1 18.300 34.001 16.093 
188 2 1 19.738 34.867 18.018 
189 2 1 21.854 34.951 19.116 
190 2 1 23.827 36.476 18.621 
191 2 1 25.990 38.025 18.648 
192 2 1 27.084 40.081 18.253 
193 2 1 27.328 42.553 17.912 
194 2 1 25.721 44.440 18.835 
195 2 1 24.292 46.139 20.030 
196 2 1 23.167 47.737 21.652 
197 2 1 21.446 49.574 21.016 
198 2 1 22.220 50.666 19.101 
199 2 1 23.945 50.266 17.486 
200 2 1 26.245 49.834 16.340 
201 2 1 28.344 48.605 17.339 
202 2 1 30.486 48.007 18.618 
203 2 1 32.179 48.294 20.227 
204 2 1 33.619 48.610 21.910 
205 2 1 34.986 47.871 23.880 
206 2 1 36.146 47.023 26.048 
207 3 1  9.686 -5.583 14.105 
208 3 1  9.482 -2.991 13.800 
209 3 1  9.800 -0.434 13.521 
210 3 1  9.404  2.121 13.633 
211 3 1  9.013  4.685 13.623 
212 3 1  9.309  7.132 13.241 
213 3 1 10.097  9.536 13.004 
214 3 1  9.272 11.171 11.149 
215 3 1  8.483 12.617  9.169 
216 3 1  7.682 13.955  7.098 
217 3 1  6.976 14.915  4.881 
218 3 1 42.839 16.059  2.636 
219 3 1 41.816 15.986  0.560 
220 3 1 40.434 15.069 -1.446 
221 3 1 40.183 12.677 -2.301 
222 3 1 39.802 10.337 50.578 
223 3 1 39.534  7.890 49.707 
224 3 1 39.348  5.367 49.031 
225 3 1 39.125  2.920 48.945 
226 3 1 37.090  1.698 49.732 
227 3 1 35.173  0.278 50.662 
228 3 1 33.366 -1.427 -2.498 
229 3 1 31.672 -3.082 -1.400 
230 3 1 32.638 -5.172 -0.951 
231 3 1 33.291 -5.548  1.619 
232 3 1 33.137 -5.265  3.936 
233 3 1 32.357 -3.990  5.987 
234 3 1 31.933 -2.418  7.938 
235 3 1 31.877 -0.799  9.893 
236 3 1 32.307  1.751 10.035 
237 3 1 32.824  4.292 10.247 
238 3 1 31.026  6.121 10.265 
239 3 1 29.286  6.528 11.821 
240 3 1 27.451  5.373 13.255 
241 3 1 26.413  3.467 12.268 
242 3 1 26.581  1.522 10.823 
243 3 1 26.877 -0.582  9.477 
244 3 1 28.086 -2.577 10.500 
245 3 1 29.073 -4.676 11.557 
246 3 1 29.954 -6.331  9.956 
247 3 1 30.076 54.168  7.702 
248 3 1 30.926 52.933  5.628 
249 3 1 30.647 50.380  5.245 
250 3 1 30.546 47.876  4.669 
251 3 1 31.414 46.930  2.427 
252 3 1 31.889 45.411  0.417 
253 3 1 32.185 43.838 -1.520 
254 3 1 32.321 42.860 50.172 
255 3 1 32.532 42.360 47.676 
256 3 1 33.155 41.722 45.321 
257 3 1 31.327 41.749 43.353 
258 3 1 31.725 40.828 40.889 
259 3 1 32.398 40.890 38.617 
260 3 1 31.678 43.116 37.477 
261 3 1 30.305 44.281 36.045 
262 3 1 28.219 44.511 34.560 
263 3 1 26.475 45.423 33.266 
264 3 1 24.926 47.100 32.855 
265 3 1 22.824 48.467 33.536 
266 3 1 22.630 50.253 35.464 
267 3 1 22.230 52.291 37.096 
268 3 1 22.213 54.445 38.554 
269 3 1 23.088 -5.401 39.707 
270 3 1 24.612 -3.867 41.185 
271 3 1 26.498 -2.601 42.592 
272 3 1 28.140 -0.992 43.748 
273 3 1 29.300  1.049 43.538 
274 3 1 28.387  3.189 43.710 
275 3 1 26.770  4.730 44.624 
276 3 1 25.146  6.435 44.872 
277 3 1 24.596  7.671 42.519 
278 3 1 23.904  9.047 40.450 
279 3 1 23.552 10.456 38.291 
280 3 1 23.310 11.880 36.099 
281 3 1 24.945 13.616 35.975 
282 3 1 27.402 14.141 36.486 
283 3 1 28.850 15.010 34.871 
284 3 1 29.799 16.791 33.074 
285 4 1 41.369 20.773 26.207 
286 4 1 41.577 18.809 27.779 
287 4 1 41.133 16.587 28.479 
288 4 1 41.071 14.232 29.104 
289 4 1 41.503 11.806 29.802 
290 4 1 41.370  9.802 31.177 
291 4 1 41.058  8.338 33.276 
292 4 1 40.724  6.867 35.354 
293 4 1 40.629  5.312 37.374 
294 4 1 41.276  3.538 38.712 
295 4 1 41.820  1.840 40.110 
296 4 1 41.502  0.339 42.169 
297 4 1 39.475 -0.375 43.414 
298 4 1 39.654 -1.227 45.857 
299 4 1 38.392 -3.230 46.851 
300 4 1 37.028 -5.066 46.828 
301 4 1 35.519 55.071 45.781 
302 4 1 34.441 -6.388 43.514 
303 4 1 32.688 53.927 42.389 
304 4 1 31.100 52.279 41.153 
305 4 1 31.395 52.462 38.833 
306 4 1 31.568 53.156 36.616 
307 4 1 32.546 51.620 35.277 
308 4 1 33.231 49.875 34.142 
309 4 1 32.651 48.014 32.378 
310 4 1 32.342 45.776 31.751 
311 4 1 33.580 43.800 31.961 
312 4 1 35.827 42.618 31.243 
313 4 1 37.939 41.469 32.111 
314 4 1 40.243 40.383 32.789 
315 4 1 42.353 39.135 33.716 
316 4 1  7.577 37.385 34.542 
317 4 1  8.255 35.843 36.070 
318 4 1  7.433 33.404 36.222 
319 4 1  7.592 32.627 38.689 
320 4 1 42.293 32.281 40.454 
321 4 1 42.204 32.777 42.976 
322 4 1 42.029 32.847 45.474 
323 4 1 41.691 32.854 47.957 
324 4 1 42.492 30.740 48.928 
325 4 1  7.270 28.977 49.804 
326 4 1  9.476 28.394 48.685 
327 4 1 11.177 30.217 49.002 
328 4 1 10.724 31.760 46.997 
329 4 1 10.103 33.337 45.127 
330 4 1  9.414 34.897 43.236 
331 4 1  9.158 36.715 41.456 
332 4 1  7.098 37.499 40.815 
333 4 1 41.511 37.549 39.320 
334 4 1 39.550 38.160 37.658 
335 4 1 37.622 38.939 36.670 
336 4 1 36.923 41.380 36.657 
337 4 1 36.152 43.886 36.735 
338 4 1 35.191 46.268 36.957 
339 4 1 34.423 47.444 39.032 
340 4 1 31.964 47.440 39.916 
341 4 1 30.369 46.216 40.875 
342 4 1 28.631 44.806 41.677 
343 4 1 28.144 44.013 44.082 
344 4 1 27.627 43.173 46.491 
345 4 1 27.489 42.428 49.019 
346 4 1 27.738 41.898 51.568 
347 4 1 28.648 41.567 -0.100 
348 4 1 30.026 41.678  2.155 
349 4 1 31.781 41.750  3.980 
350 4 1 31.481 42.500  6.465 
351 4 1 30.545 43.990  7.976 
352 4 1 29.349 46.185  8.682 
353 4 1 28.196 48.404  9.045 
354 4 1 27.063 50.673  9.162 
355 4 1 25.951 52.974  9.148 
356 4 1 25.148 55.385  8.687 
357 4 1 24.203 -4.276  8.919 
358 4 1 22.965 -2.400 10.123 
359 4 1 21.565 -0.251 10.707 
360 4 1 21.381  2.020 10.719 
361 4 1 22.033  4.376 10.083 
362 4 1 22.733  6.641 10.310 
363 5 1 15.546 51.166 45.646 
364 5 1 14.665 49.510 47.395 
365 5 1 13.508 50.053 49.672 
366 5 1 13.034 51.213 -2.411 
367 5 1 12.709 53.667 -1.569 
368 5 1 10.802 55.313 51.576 
369 5 1  8.291 55.150 -1.807 
370 5 1  5.663 55.275 -1.649 
371 5 1 40.401 -5.011 51.149 
372 5 1 39.636 -2.807 -2.149 
373 5 1 39.579 -0.300 -1.691 
374 5 1 39.017  1.688 -0.605 
375 5 1 37.577  2.942  1.045 
376 5 1 35.968  3.881  2.821 
377 5 1 35.181  3.486  4.928 
378 5 1 35.468  2.445  7.264 
379 5 1 35.864 -0.020  7.161 
380 5 1 36.711 -2.392  7.193 
381 5 1 37.415 -4.736  7.907 
382 5 1 37.998 54.749  8.682 
383 5 1 38.610 52.267  8.912 
384 5 1 39.417 49.875  9.180 
385 5 1 40.024 47.376  9.372 
386 5 1 40.769 45.561  7.614 
387 5 1 41.541 43.712  6.068 
388 5 1 41.483 42.346  4.254 
389 5 1 40.746 41.527  1.912 
390 5 1 40.311 40.902 -0.613 
391 5 1 39.931 40.161 50.932 
392 5 1 40.392 40.384 48.691 
393 5 1 39.279 42.008 47.523 
394 5 1 37.115 43.350 46.751 
395 5 1 36.684 45.597 47.828 
396 5 1 36.347 47.676 49.234 
397 5 1 34.055 48.431 50.039 
398 5 1 31.774 48.466 50.423 
399 5 1 29.484 47.299 50.517 
400 5 1 27.120 46.888 50.266 
401 5 1 24.806 47.050 49.178 
402 5 1 22.581 46.860 47.810 
403 5 1 20.765 47.062 46.046 
404 5 1 18.873 47.408 44.386 
405 5 1 17.796 45.588 42.998 
406 5 1 16.952 43.718 41.390 
407 5 1 16.549 41.641 40.032 
408 5 1 16.280 39.467 38.737 
409 5 1 16.333 37.271 37.316 
410 5 1 17.528 36.642 35.031 
411 5 1 18.521 34.540 34.148 
412 5 1 17.279 32.710 32.702 
413 5 1 15.827 31.218 31.170 
414 5 1 14.522 30.074 29.233 
415 5 1 15.578 28.495 27.451 
416 5 1 13.797 26.973 26.888 
417 5 1 11.843 25.420 27.262 
418 5 1 10.275 23.389 27.133 
419 5 1  9.396 21.046 26.570 
420 5 1  9.120 18.660 25.693 
421 5 1  8.428 16.196 25.149 
422 5 1  7.245 14.121 24.393 
423 5 1 41.926 12.663 25.145 
424 5 1 40.153 10.970 26.117 
425 5 1 38.035 10.008 26.409 
426 5 1 35.480 10.152 26.207 
427 5 1 32.939 10.331 26.041 
428 5 1 30.379 10.149 25.777 
429 5 1 29.058 10.909 23.622 
430 5 1 27.806 11.768 21.657 
431 5 1 26.367 12.599 19.695 
432 5 1 24.765 13.440 17.845 
433 5 1 25.421 13.975 15.448 
434 5 1 25.872 14.393 12.970 
435 5 1 25.856 15.105 10.447 
436 5 1 24.964 16.359  8.395 
437 5 1 24.220 17.647  6.272 
438 5 1 23.186 16.857  4.012 
439 5 1 22.379 16.076  1.670 
440 5 1 22.213 17.066 -0.641 
441 6 1 41.409  7.011 10.424 
442 6 1 41.627  4.435 10.245 
443 6 1 41.354  1.943 10.727 
444 6 1 40.260 -0.134 11.257 
445 6 1 37.717  0.448 11.109 
446 6 1 35.984 -1.433 11.539 
447 6 1 35.456 -3.629 12.154 
448 6 1 36.210 -6.094 12.502 
449 6 1 37.002 53.363 13.256 
450 6 1 37.807 51.024 13.824 
451 6 1 38.389 48.563 14.493 
452 6 1 38.397 47.358 16.695 
453 6 1 38.533 46.014 18.928 
454 6 1 37.837 45.048 20.950 
455 6 1 35.737 43.863 21.834 
456 6 1 33.805 42.533 22.783 
457 6 1 33.992 40.262 24.044 
458 6 1 33.223 37.795 23.868 
459 6 1 32.517 35.425 23.314 
460 6 1 33.119 33.031 23.846 
461 6 1 33.453 30.453 23.630 
462 6 1 33.774 27.913 22.996 
463 6 1 34.354 27.349 20.748 
464 6 1 35.586 27.654 18.564 
465 6 1 37.847 28.917 18.138 
466 6 1 39.251 28.652 16.058 
467 6 1 40.787 28.192 14.111 
468 6 1 41.352 27.273 12.084 
469 6 1 39.485 27.662 10.323 
470 6 1 37.767 28.949  9.395 
471 6 1 36.192 29.579 11.249 
472 6 1 34.711 29.972 13.364 
473 6 1 33.046 30.618 15.297 
474 6 1 31.151 30.234 16.656 
475 6 1 30.610 28.410 18.367 
476 6 1 30.150 25.974 17.645 
477 6 1 29.700 23.962 16.263 
478 6 1 30.775 24.607 14.314 
479 6 1 31.754 25.332 12.290 
480 6 1 31.444 26.757 10.234 
481 6 1 31.945 28.561  8.810 
482 6 1 33.226 30.445  7.679 
483 6 1 34.024 32.550  6.483 
484 6 1 34.626 34.849  5.502 
485 6 1 33.966 36.671  4.209 
486 6 1 32.860 38.119  2.419 
487 6 1 32.028 37.717  0.008 
488 6 1 31.301 37.304 -2.359 
489 6 1 29.898 38.780 49.984 
490 6 1 29.578 38.269 47.459 
491 6 1 30.328 37.182 45.681 
492 6 1 31.120 34.900 44.813 
493 6 1 32.148 32.618 43.942 
494 6 1 33.329 30.416 43.166 
495 6 1 34.645 28.188 42.827 
496 6 1 35.363 25.718 42.562 
497 6 1 35.835 23.288 42.195 
498 6 1 36.130 20.815 41.561 
499 6 1 36.409 18.254 41.054 
500 6 1 36.767 15.627 40.650 
501 6 1 35.448 14.299 39.206 
502 6 1 34.205 13.720 37.057 
503 6 1 33.003 13.145 34.795 
504 6 1 32.209 12.343 32.470 
505 6 1 30.763 11.230 30.993 
506 6 1 28.527 10.029 30.279 
507 6 1 27.694  8.976 32.193 
508 6 1 28.340  8.561 34.408 
509 6 1 29.289  9.214 36.696 
510 6 1 29.239 10.016 38.865 
511 6 1 29.183 11.479 40.711 
512 6 1 30.220 13.802 40.283 
513 6 1 31.193 16.123 39.916 
514 6 1 32.006 18.554 39.590 
515 6 1 31.893 20.861 39.303 
516 6 1 31.359 23.335 39.960 
517 6 1 30.885 25.674 40.681 
518 6 1 30.423 27.961 40.562 
519 7 1 12.665 14.986 38.547 
520 7 1 10.420 14.850 39.812 
521 7 1  8.558 14.723 41.638 
522 7 1  6.108 15.226 41.353 
523 7 1 41.207 16.247 39.934 
524 7 1 40.639 18.027 38.075 
525 7 1 39.399 19.933 37.397 
526 7 1 37.393 21.453 37.328 
527 7 1 35.474 23.192 37.174 
528 7 1 33.868 25.096 36.595 
529 7 1 32.996 27.176 35.387 
530 7 1 31.990 29.163 34.496 
531 7 1 30.825 31.381 34.273 
532 7 1 29.882 33.762 34.164 
533 7 1 28.400 34.682 36.038 
534 7 1 27.493 34.708 38.134 
535 7 1 27.465 34.217 40.617 
536 7 1 27.462 33.438 43.054 
537 7 1 27.194 32.782 45.440 
538 7 1 28.713 31.125 46.667 
539 7 1 30.302 29.295 47.507 
540 7 1 32.299 28.073 47.571 
541 7 1 32.408 26.265 46.087 
542 7 1 31.927 23.934 45.288 
543 7 1 32.121 21.416 44.672 
544 7 1 32.111 18.950 43.978 
545 7 1 33.732 16.975 44.538 
546 7 1 33.618 14.553 43.614 
547 7 1 33.712 12.085 42.849 
548 7 1 34.149  9.643 42.210 
549 7 1 35.098  8.003 40.720 
550 7 1 35.534  7.289 38.267 
551 7 1 35.811  8.852 36.218 
552 7 1 36.230 10.069 33.867 
553 7 1 36.687 11.013 31.530 
554 7 1 36.863 12.804 30.238 
555 7 1 36.763 15.264 29.726 
556 7 1 37.066 17.854 29.300 
557 7 1 36.079 19.876 28.624 
558 7 1 34.459 21.005 26.943 
559 7 1 32.143 20.137 26.866 
560 7 1 29.967 19.248 27.237 
561 7 1 27.919 20.660 26.356 
562 7 1 25.644 21.033 25.409 
563 7 1 23.301 20.469 24.319 
564 7 1 20.845 20.028 23.451 
565 7 1 18.535 19.486 22.444 
566 7 1 16.098 18.911 21.729 
567 7 1 14.164 19.285 20.427 
568 7 1 12.809 20.605 18.682 
569 7 1 11.419 22.255 17.198 
570 7 1 10.347 24.302 16.823 
571 7 1  9.849 26.803 17.318 
572 7 1 11.029 28.846 16.220 
573 7 1 12.287 30.845 15.174 
574 7 1 13.091 32.890 13.859 
575 7 1 14.235 34.760 12.549 
576 7 1 15.853 36.634 13.385 
577 7 1 15.247 38.421 15.118 
578 7 1 14.917 40.415 16.777 
579 7 1 14.951 42.404 18.470 
580 7 1 15.094 44.538 20.049 
581 7 1 15.008 46.581 21.577 
582 7 1 15.216 48.951 22.790 
583 7 1 15.456 51.407 23.727 
584 7 1 14.618 53.570 24.082 
585 7 1 12.779 55.381 23.838 
586 7 1 12.471 -4.553 22.064 
587 7 1 11.743 -2.594 20.623 
588 7 1 10.380 -0.841 19.184 
589 7 1  7.920 -0.817 18.337 
590 7 1 42.167 -0.678 17.134 
591 7 1 41.050 -1.626 15.316 
592 7 1 40.479 -3.665 13.921 
593 7 1 41.326 -5.773 14.443 
594 7 1 41.781 53.864 15.731 
595 7 1 42.583 51.791 16.931 
596 7 1  6.291 51.230 19.439 
597 8 1 33.329 36.485 33.341 
598 8 1 34.898 34.564 33.916 
599 8 1 34.849 32.067 33.063 
600 8 1 36.542 30.101 33.468 
601 8 1 38.852 29.537 33.560 
602 8 1 41.051 29.376 34.260 
603 8 1 42.854 29.078 36.024 
604 8 1  8.250 28.290 37.489 
605 8 1  9.109 28.686 39.814 
606 8 1 10.671 29.746 41.095 
607 8 1 12.455 31.542 41.404 
608 8 1 12.653 33.728 39.995 
609 8 1 12.560 35.994 38.768 
610 8 1 11.665 38.070 37.665 
611 8 1 11.010 40.025 36.041 
612 8 1 11.694 42.547 36.056 
613 8 1 12.223 45.082 36.075 
614 8 1 13.356 47.076 36.393 
615 8 1 15.362 48.161 37.611 
616 8 1 17.432 49.094 38.836 
617 8 1 19.277 50.076 40.331 
618 8 1 20.728 50.845 42.297 
619 8 1 21.941 51.328 44.449 
620 8 1 23.188 51.713 46.650 
621 8 1 24.910 52.175 48.481 
622 8 1 26.875 52.370 50.167 
623 8 1 29.335 52.829 49.676 
624 8 1 31.899 53.214 49.516 
625 8 1 34.259 54.042 49.277 
626 8 1 36.106 54.299 51.090 
627 8 1 38.036 53.474 -1.835 
628 8 1 39.767 51.786 -1.039 
629 8 1 40.015 49.331 -1.681 
630 8 1 40.407 46.981 -2.679 
631 8 1 41.257 44.580 50.733 
632 8 1  6.949 44.054 49.487 
633 8 1  9.076 43.488 48.117 
634 8 1 11.031 43.071 46.525 
635 8 1 12.082 43.949 44.534 
636 8 1 12.855 45.915 43.011 
637 8 1 13.665 47.947 41.499 
638 8 1 12.942 50.424 41.798 
639 8 1 12.342 52.885 42.446 
640 8 1 11.308 55.227 43.037 
641 8 1 12.660 -4.727 42.551 
642 8 1 14.537 -3.064 42.667 
643 8 1 16.515 -1.378 42.888 
644 8 1 18.264 -1.160 44.796 
645 8 1 19.399 -1.741 46.782 
646 8 1 19.768 -2.662 49.083 
647 8 1 17.847 -2.955 50.817 
648 8 1 17.339 -0.977 -1.719 
649 8 1 16.433  0.891 -0.192 
650 8 1 16.091  3.037  0.448 
651 8 1 14.525  4.237 -1.202 
652 8 1 12.493  4.921 -2.138 
653 8 1  9.978  5.169 51.873 
654 8 1  7.396  5.032 51.570 
655 8 1 42.007  5.375 -0.863 
656 8 1 40.647  6.861  0.251 
657 8 1 39.758  9.199  0.918 
658 8 1 39.243 11.631  1.614 
659 8 1 38.232 13.825  2.397 
660 8 1 36.961 15.754  3.521 
661 8 1 35.556 17.620  4.622 
662 8 1 34.026 19.287  5.780 
663 8 1 33.308 20.472  7.639 
664 8 1 33.125 21.085 10.144 
665 8 1 33.069 21.236 12.708 
666 8 1 32.976 20.595 15.181 
667 8 1 32.870 20.513 17.551 
668 8 1 32.437 21.744 19.720 
669 8 1 31.870 22.877 21.988 
670 8 1 31.178 23.765 24.313 
671 8 1 30.049 24.730 26.369 
672 8 1 30.116 27.246 26.888 
673 8 1 30.691 29.690 27.718 
674 8 1 31.144 32.151 28.453 
675 9 1 24.246 53.524 24.184 
676 9 1 22.312 54.347 22.683 
677 9 1 20.052 54.773 21.408 
678 9 1 19.618 54.119 18.940 
679 9 1 19.177 53.036 16.639 
680 9 1 19.680 51.515 14.844 
681 9 1 21.093 49.903 13.399 
682 9 1 22.415 48.096 12.157 
683 9 1 23.529 46.148 10.946 
684 9 1 24.606 44.018  9.958 
685 9 1 25.993 42.345  8.528 
686 9 1 26.368 41.190  6.479 
687 9 1 25.885 40.183  4.182 
688 9 1 25.691 39.065  1.812 
689 9 1 25.356 37.583 -0.336 
690 9 1 25.139 38.295 -2.846 
691 9 1 24.407 36.804 49.294 
692 9 1 25.084 37.259 46.884 
693 9 1 25.700 37.797 44.388 
694 9 1 26.566 38.374 42.054 
695 9 1 27.437 39.147 39.820 
696 9 1 28.203 39.557 37.441 
697 9 1 26.569 40.038 35.443 
698 9 1 25.427 40.674 33.268 
699 9 1 24.100 41.406 31.135 
700 9 1 23.589 39.763 29.611 
701 9 1 22.725 37.635 28.594 
702 9 1 22.049 35.424 27.547 
703 9 1 21.303 33.063 26.879 
704 9 1 20.407 30.802 26.023 
705 9 1 19.483 28.726 24.844 
706 9 1 18.444 26.843 23.455 
707 9 1 17.550 24.734 22.085 
708 9 1 15.458 23.378 22.488 
709 9 1 14.026 22.084 23.736 
710 9 1 13.667 20.378 25.781 
711 9 1 13.389 18.946 27.878 
712 9 1 13.118 17.553 30.063 
713 9 1 12.746 16.059 32.144 
714 9 1 12.830 14.107 33.891 
715 9 1 13.009 12.058 35.423 
716 9 1 13.020  9.804 36.571 
717 9 1 12.585  9.000 38.706 
718 9 1 13.645 10.879 40.265 
719 9 1 14.723 12.618 41.838 
720 9 1 13.530 13.880 43.785 
721 9 1 12.964 16.241 43.473 
722 9 1 11.622 18.020 42.070 
723 9 1 10.089 20.064 42.186 
724 9 1  9.686 22.290 42.719 
725 9 1 10.408 24.464 43.709 
726 9 1 11.250 26.597 44.821 
727 9 1 13.732 26.533 45.052 
728 9 1 16.198 25.815 44.648 
729 9 1 18.579 25.059 44.303 
730 9 1 20.832 24.790 44.527 
731 9 1 23.055 24.998 45.843 
732 9 1 23.293 26.394 47.974 
733 9 1 23.570 27.490 50.314 
734 9 1 24.977 26.707 52.236 
735 9 1 26.949 26.439 -0.736 
736 9 1 29.415 27.007 -0.307 
737 9 1 31.888 27.376  0.096 
738 9 1 33.677 27.733  1.618 
739 9 1 35.206 28.452  3.303 
740 9 1 37.150 29.831  4.175 
741 9 1 38.219 31.621  3.143 
742 9 1 40.095 32.562  1.702 
743 9 1 41.824 33.539  0.046 
744 9 1 42.788 35.413 -0.946 
745 9 1  7.170 37.805 -0.904 
746 9 1  8.094 40.233 -0.798 
747 9 1  8.426 42.821 -0.649 
748 9 1  7.319 44.775  0.755 
749 9 1 42.208 46.492  1.684 
750 9 1 42.094 48.853  2.791 
751 9 1 41.750 51.264  3.682 
752 9 1 39.586 52.721  3.917 
753 10 1 27.371 -0.158 -0.288 
754 10 1 29.228  1.511 -0.980 
755 10 1 31.115  3.151 -1.778 
756 10 1 33.013  4.865 51.594 
757 10 1 34.809  6.391 50.698 
758 10 1 35.527  8.543 -2.150 
759 10 1 35.271 10.054 -0.524 
760 10 1 34.209 10.808  1.750 
761 10 1 34.902  9.869  3.789 
762 10 1 36.446  8.640  5.234 
763 10 1 38.065  6.737  6.115 
764 10 1 39.575  4.704  6.713 
765 10 1 40.784  3.201  4.962 
766 10 1 41.810  1.432  3.346 
767 10 1 42.950 -0.550  2.124 
768 10 1  7.285 -1.780  0.431 
769 10 1  8.718 -2.108 -1.803 
770 10 1  9.316 -0.235 50.636 
771 10 1  8.931  1.489 49.264 
772 10 1  7.577  2.772 47.519 
773 10 1  6.195  4.177 45.809 
774 10 1 41.908  5.663 43.872 
775 10 1 39.535  5.591 42.898 
776 10 1 37.475  4.531 42.102 
777 10 1 35.923  2.632 41.376 
778 10 1 34.762  0.787 42.710 
779 10 1 33.778 -1.090 44.243 
780 10 1 32.729 -2.655 45.992 
781 10 1 30.753 -4.197 45.544 
782 10 1 28.698 -5.720 45.477 
783 10 1 27.015 54.872 44.527 
784 10 1 25.946 53.714 42.412 
785 10 1 24.936 51.990 40.584 
786 10 1 26.196 50.135 39.248 
787 10 1 27.438 48.504 37.623 
788 10 1 28.080 49.292 35.306 
789 10 1 28.478 50.205 33.008 
790 10 1 28.990 51.664 31.287 
791 10 1 27.770 53.810 30.633 
792 10 1 26.805 56.127 30.329 
793 10 1 25.304 -3.811 30.857 
794 10 1 24.213 -1.811 31.503 
795 10 1 23.658  0.657 31.634 
796 10 1 23.504  3.273 31.389 
797 10 1 23.282  5.887 31.182 
798 10 1 23.278  8.541 31.102 
799 10 1 22.438 10.780 31.353 
800 10 1 21.820 12.922 31.828 
801 10 1 22.463 15.348 32.135 
802 10 1 22.853 17.423 32.962 
803 10 1 22.738 19.006 34.886 
804 10 1 24.717 19.657 36.418 
805 10 1 25.191 18.729 38.770 
806 10 1 26.158 17.809 40.905 
807 10 1 27.478 16.724 42.783 
808 10 1 28.777 15.612 44.719 
809 10 1 29.952 14.363 46.604 
810 10 1 30.802 15.145 48.862 
811 10 1 31.375 16.568 50.463 
812 10 1 32.338 18.675 50.782 
813 10 1 33.626 20.813 50.257 
814 10 1 34.110 23.040 50.496 
815 10 1 34.592 25.316 50.835 
816 10 1 35.431 27.726 50.474 
817 10 1 36.428 28.962 -1.601 
818 10 1 35.951 31.129 -0.778 
819 10 1 34.714 33.064  0.244 
820 10 1 32.450 32.827  1.537 
821 10 1 30.552 31.676  2.398 
822 10 1 29.003 29.755  3.336 
823 10 1 27.052 28.429  2.886 
824 10 1 24.777 29.214  2.806 
825 10 1 23.185 30.494  3.932 
826 10 1 22.210 30.905  5.994 
827 10 1 20.299 30.980  7.767 
828 10 1 18.482 30.764  9.578 
829 10 1 15.977 31.237  9.114 
830 10 1 13.574 31.613  8.481 
831 11 1 28.638 23.512 49.982 
832 11 1 28.041 24.760 47.817 
833 11 1 27.337 26.027 45.701 
834 11 1 26.725 27.300 43.582 
835 11 1 25.997 28.393 41.272 
836 11 1 25.148 29.104 39.061 
837 11 1 24.133 30.046 36.888 
838 11 1 21.691 30.083 36.086 
839 11 1 19.400 29.284 35.031 
840 11 1 17.183 28.109 34.185 
841 11 1 14.983 26.872 33.659 
842 11 1 14.855 25.767 31.648 
843 11 1 13.873 23.483 31.846 
844 11 1 12.880 21.538 32.691 
845 11 1 12.322 19.791 34.510 
846 11 1 12.581 20.151 36.965 
847 11 1 12.967 21.139 38.979 
848 11 1 14.146 22.956 40.385 
849 11 1 15.011 22.324 42.509 
850 11 1 14.496 21.073 44.749 
851 11 1 13.006 21.948 46.597 
852 11 1 11.457 22.706 48.462 
853 11 1 10.778 23.958 50.307 
854 11 1 10.162 24.637 -1.471 
855 11 1  7.684 23.951 -1.144 
856 11 1  6.082 24.248  0.869 
857 11 1 41.755 22.222  2.223 
858 11 1 41.077 20.531  4.009 
859 11 1 41.367 19.087  5.797 
860 11 1 42.171 17.866  7.911 
861 11 1 42.274 16.687 10.245 
862 11 1  7.698 16.990 11.206 
863 11 1 10.206 16.634 11.090 
864 11 1 12.788 16.283 10.661 
865 11 1 15.005 17.080 10.681 
866 11 1 16.856 17.869 11.770 
867 11 1 19.250 17.385 12.590 
868 11 1 21.170 17.704 13.773 
869 11 1 22.571 18.813 15.709 
870 11 1 24.089 19.979 17.526 
871 11 1 25.940 21.060 19.011 
872 11 1 26.025 22.258 21.334 
873 11 1 27.329 24.398 21.654 
874 11 1 28.135 26.721 22.116 
875 11 1 28.606 29.111 22.772 
876 11 1 28.560 31.505 22.794 
877 11 1 28.671 33.866 22.031 
878 11 1 28.563 34.679 19.582 
879 11 1 28.594 34.277 17.144 
880 11 1 28.213 34.033 14.873 
881 11 1 27.571 34.963 12.602 
882 11 1 26.870 36.072 10.288 
883 11 1 26.812 38.473 10.432 
884 11 1 28.761 39.958 11.181 
885 11 1 29.034 39.658 13.543 
886 11 1 31.133 38.331 14.327 
887 11 1 33.413 37.833 14.458 
888 11 1 35.906 38.075 14.087 
889 11 1 38.475 38.023 13.675 
890 11 1 41.049 37.525 13.161 
891 11 1 42.256 38.129 10.983 
892 11 1  5.661 38.419  8.686 
893 11 1 40.995 38.050  6.352 
894 11 1 39.675 37.408  4.164 
895 11 1 38.427 36.671  1.959 
896 11 1 37.276 36.313 -0.361 
897 11 1 37.349 35.953 -2.707 
898 11 1 38.264 35.314 48.986 
899 11 1 38.379 35.186 46.417 
900 11 1 38.322 34.946 43.921 
901 11 1 38.093 34.474 41.466 
902 11 1 37.535 34.130 39.015 
903 11 1 39.019 33.629 36.877 
904 11 1 39.813 35.031 34.873 
905 11 1 39.307 35.099 32.296 
906 11 1 38.023 35.949 30.417 
907 11 1 35.768 36.930 29.472 
908 11 1 33.668 37.840 28.297 
909 12 1 16.319 55.784 47.834 
910 12 1 14.298 -4.497 47.474 
911 12 1 14.037 -2.004 48.079 
912 12 1 13.297 -0.380 46.191 
913 12 1 13.353  1.485 44.539 
914 12 1 14.527  2.481 42.763 
915 12 1 15.002  2.791 40.578 
916 12 1 14.334  3.290 38.210 
917 12 1 14.791  3.549 36.106 
918 12 1 16.622  5.036 35.605 
919 12 1 18.459  6.444 35.462 
920 12 1 20.953  6.990 34.952 
921 12 1 22.938  6.135 36.260 
922 12 1 24.967  5.449 37.664 
923 12 1 27.141  5.391 39.088 
924 12 1 29.219  5.683 40.679 
925 12 1 29.726  7.599 42.181 
926 12 1 30.480  9.108 44.109 
927 12 1 30.706  9.710 46.368 
928 12 1 30.953  7.593 47.848 
929 12 1 29.222  5.757 48.484 
930 12 1 27.448  3.858 49.003 
931 12 1 25.512  2.362 49.534 
932 12 1 23.400  1.062 50.248 
933 12 1 21.984  1.286 -1.611 
934 12 1 21.463 -0.224  0.295 
935 12 1 20.739 -1.198  2.523 
936 12 1 18.924 -2.931  2.871 
937 12 1 16.947 -4.497  3.184 
938 12 1 15.151 -6.230  3.869 
939 12 1 13.377 53.753  4.595 
940 12 1 11.967 51.638  5.099 
941 12 1 10.827 49.413  5.582 
942 12 1  9.305 47.330  6.102 
943 12 1  8.903 44.954  6.249 
944 12 1 10.351 43.606  4.798 
945 12 1 11.614 41.774  3.572 
946 12 1 12.005 39.770  2.224 
947 12 1 12.019 37.425  1.138 
948 12 1 11.882 34.935  0.440 
949 12 1 11.521 33.103 -1.020 
950 12 1 11.833 34.139 50.608 
951 12 1 10.168 35.589 49.325 
952 12 1  8.406 36.874 47.919 
953 12 1  6.658 37.753 46.131 
954 12 1 41.216 38.386 44.552 
955 12 1 39.495 39.527 42.962 
956 12 1 37.575 40.544 42.185 
957 12 1 35.897 42.495 42.081 
958 12 1 34.705 44.778 41.862 
959 12 1 34.978 46.661 43.565 
960 12 1 36.153 48.974 43.139 
961 12 1 37.271 51.388 42.894 
962 12 1 38.385 53.658 42.651 
963 12 1 39.713 55.817 42.885 
964 12 1 41.468 -4.535 42.411 
965 12 1 43.234 -3.348 40.997 
966 12 1  8.558 -2.080 39.739 
967 12 1 10.595 -0.727 39.424 
968 12 1 12.017 -0.671 37.305 
969 12 1 13.531 -0.724 35.180 
970 12 1 14.789  0.217 33.495 
971 12 1 15.286  2.042 31.731 
972 12 1 14.502  4.499 31.706 
973 12 1 14.600  6.341 29.965 
974 12 1 14.709  8.037 28.052 
975 12 1 14.483  8.391 25.829 
976 12 1 13.600  7.795 23.490 
977 12 1 13.832  7.381 21.295 
978 12 1 15.510  5.466 20.722 
979 12 1 17.620  4.011 20.049 
980 12 1 19.957  2.773 19.915 
981 12 1 22.354  2.053 20.594 
982 12 1 24.850  2.083 21.379 
983 12 1 26.737  1.122 22.305 
984 12 1 28.490 -0.496 23.263 
985 12 1 30.848 -1.426 23.998 
986 12 1 33.094 -2.501 24.613 