LAMMPS data file generated by aa2cg.

2000 atoms
1 atom types
1975 bonds
1 bond types
1950 angles
1 angle types
1925 dihedrals
1 dihedral types

 0.000 42.265 xlo xhi
 0.000 43.170 ylo yhi
 0.000 67.572 zlo zhi

Masses

1 24.022

Atoms # molecular

1 1 1  7.454 40.699 27.464 
2 1 1 44.742  5.102  7.340 
3 2 1 40.739  4.569 10.717 
4 2 1 21.669 14.628 26.097 
5 3 1  8.921 27.608 24.307 
6 3 1 42.733  9.212 43.298 
7 4 1 27.556 46.206  7.506 
8 4 1 22.993 20.241  5.672 
9 5 1 21.288  8.831  6.553 
10 5 1 32.763 10.790  3.878 
11 6 1 45.585  7.762 -7.218 
12 6 1  6.587 34.504 28.137 
13 7 1 22.994  6.244 58.691 
14 7 1 15.655 37.395 14.396 
15 8 1  7.900  7.067 -5.478 
16 8 1 33.838 38.773 12.471 
17 9 1 29.824 11.493 37.527 
18 9 1 36.936 23.959 -3.292 
19 10 1 24.072 38.208 36.560 
20 10 1 17.688 41.940 53.844 
21 11 1 31.647 46.751 12.150 
22 11 1 25.144 10.279  1.278 
23 12 1  4.231 13.093 20.522 
24 12 1 13.083 45.503 37.230 
25 13 1 34.985 37.645 17.369 
26 13 1 24.553 26.710 -6.384 
27 14 1 42.681  4.689 44.386 
28 14 1 29.980 13.073 26.160 
29 15 1 26.827 15.310 -8.135 
30 15 1 44.685 20.533 26.985 
31 16 1 40.025 36.630 27.520 
32 16 1 42.657 12.973 -7.720 
33 17 1  4.503 25.847 36.831 
34 17 1 11.781 22.002  1.619 
35 18 1 13.240 24.976 51.264 
36 18 1 29.156 20.443 54.778 
37 19 1 31.040 36.971 19.288 
38 19 1  9.672 40.616 19.034 
39 20 1 15.078 13.840 -6.446 
40 20 1 37.011 45.807 27.083 
41 21 1 42.168  5.026 -4.382 
42 21 1 34.930 23.817 16.530 
43 22 1 22.676 21.357 24.895 
44 22 1 29.735  5.154 51.109 
45 23 1 31.976 19.443 35.172 
46 23 1 20.535 18.173 47.146 
47 24 1  9.278 44.237 44.458 
48 24 1 19.212 22.991 20.326 
49 25 1 23.244 35.854 21.631 
50 25 1  5.241 12.329 11.779 
51 1 1  7.504 43.292 27.962 
52 1 1  7.631 45.588 27.424 
53 1 1  8.084  4.523 26.047 
54 1 1  8.486  6.457 24.482 
55 1 1  9.002  7.919 22.429 
56 1 1  9.108  9.746 20.990 
57 1 1  8.798 12.168 20.361 
58 1 1  9.357 14.460 20.526 
59 1 1  9.757 16.737 20.655 
60 1 1  7.741 17.904 21.719 
61 1 1  5.653 17.781 22.869 
62 1 1  3.811 16.821 24.359 
63 1 1 44.537 15.466 25.966 
64 1 1 43.279 13.792 27.532 
65 1 1 42.941 11.137 27.375 
66 1 1 42.155  9.750 29.416 
67 1 1 40.371  7.942 29.493 
68 1 1 38.662  6.059 29.602 
69 1 1 38.612  4.017 31.258 
70 1 1 38.410 45.289 33.097 
71 1 1 38.110 43.730 35.006 
72 1 1 37.755 42.146 37.011 
73 1 1 37.553 40.840 39.143 
74 1 1 37.289 39.526 41.443 
75 1 1 37.158 38.578 43.862 
76 1 1 37.040 37.902 46.339 
77 1 1 35.305 36.533 47.661 
78 1 1 33.464 35.247 48.857 
79 1 1 31.597 33.855 48.815 
80 1 1 29.758 32.249 47.902 
81 1 1 30.101 30.545 45.937 
82 1 1 30.346 29.122 43.782 
83 1 1 30.883 27.856 41.634 
84 1 1 28.879 27.205 40.527 
85 1 1 26.601 26.254 40.368 
86 1 1 24.489 24.866 40.274 
87 1 1 23.685 22.807 41.469 
88 1 1 23.699 23.133 43.911 
89 1 1 24.587 24.012 46.147 
90 1 1 25.338 24.753 48.517 
91 1 1 26.266 25.021 50.860 
92 1 1 27.278 25.073 53.154 
93 1 1 28.625 25.128 55.378 
94 1 1 30.188 24.934 57.434 
95 1 1 30.931 23.887 -8.084 
96 1 1 30.559 22.285 -6.081 
97 1 1 29.792 20.857 -4.067 
98 1 1 29.656 19.066 -2.227 
99 1 1 30.018 17.143 -0.520 
100 1 1 30.391 15.334  1.342 
101 1 1 29.961 12.893  0.751 
102 1 1 30.366 12.537 -1.489 
103 1 1 30.134 13.329 -3.969 
104 1 1 30.723 14.374 -6.058 
105 1 1 31.341 16.260 -7.773 
106 1 1 32.422 17.727 -9.612 
107 1 1 34.025 19.055 56.366 
108 1 1 35.640 20.088 54.622 
109 1 1 37.065 20.551 52.649 
110 1 1 38.605 20.847 50.541 
111 1 1 40.983 21.877 50.941 
112 1 1 41.941 24.315 50.850 
113 1 1 41.928 26.481 51.510 
114 1 1 40.912 28.433 52.801 
115 1 1 40.528 28.487 55.346 
116 1 1 40.253 27.775 57.837 
117 1 1 40.183 27.278 -7.160 
118 1 1 40.202 27.280 -4.619 
119 1 1 40.351 28.062 -2.309 
120 1 1 40.703 29.096 -0.110 
121 1 1 41.359 30.258  2.068 
122 1 1 41.038 32.800  2.408 
123 1 1 40.388 35.139  2.967 
124 1 1 39.355 37.343  3.704 
125 1 1 40.774 39.448  4.104 
126 1 1 42.163 41.446  4.744 
127 1 1 43.065 43.747  5.513 
128 1 1 43.907 46.054  6.365 
129 2 1 39.384  3.267  8.940 
130 2 1 38.501 45.220  6.882 
131 2 1 38.839 44.381  4.470 
132 2 1 39.232 43.689  2.014 
133 2 1 39.802 43.171 -0.397 
134 2 1 40.739 42.499 -2.662 
135 2 1 42.958 43.761 -3.597 
136 2 1 45.158 44.944 -4.376 
137 2 1  5.210 44.825 -3.299 
138 2 1  7.656 44.872 -2.366 
139 2 1  9.134  3.814 -1.870 
140 2 1 10.610  5.916 -1.500 
141 2 1 10.932  8.133 -0.982 
142 2 1 10.123 10.564 -0.584 
143 2 1  9.405 12.956  0.166 
144 2 1  9.368 15.432  0.885 
145 2 1  7.764 17.434  1.237 
146 2 1  6.059 19.365  0.927 
147 2 1  5.959 21.677  2.089 
148 2 1  6.705 24.000  1.365 
149 2 1  8.069 25.889  0.679 
150 2 1 10.066 27.243  0.104 
151 2 1 12.528 26.600  0.352 
152 2 1 14.314 27.532  1.846 
153 2 1 16.521 28.824  1.153 
154 2 1 18.791 29.100  2.525 
155 2 1 20.759 29.026  4.088 
156 2 1 22.825 28.812  5.560 
157 2 1 24.811 28.362  7.189 
158 2 1 26.535 28.247  9.050 
159 2 1 28.828 27.554  8.403 
160 2 1 30.595 27.093  6.579 
161 2 1 30.081 27.170  4.004 
162 2 1 30.100 28.185  1.879 
163 2 1 30.621 30.078  0.121 
164 2 1 31.390 31.758 -1.696 
165 2 1 31.165 34.332 -1.926 
166 2 1 33.029 36.129 -2.396 
167 2 1 33.666 36.800 -4.835 
168 2 1 34.748 37.093 -7.156 
169 2 1 35.498 36.222 -9.278 
170 2 1 33.531 35.705 56.879 
171 2 1 31.172 35.372 56.092 
172 2 1 29.022 35.035 57.472 
173 2 1 26.707 34.586 -9.083 
174 2 1 24.957 33.346 -8.139 
175 2 1 23.404 31.849 -7.426 
176 2 1 21.371 30.421 -7.036 
177 2 1 20.345 28.485 -6.070 
178 2 1 19.830 26.650 -4.372 
179 2 1 21.056 26.161 -2.217 
180 2 1 22.311 25.445  0.026 
181 2 1 23.597 24.624  2.196 
182 2 1 25.248 24.088  4.086 
183 2 1 26.874 24.000  6.098 
184 2 1 26.373 22.735  8.290 
185 2 1 25.184 21.399  9.840 
186 2 1 23.917 19.216 10.228 
187 2 1 22.935 17.260 11.308 
188 2 1 22.154 15.730 13.232 
189 2 1 21.373 14.123 15.157 
190 2 1 22.888 13.155 17.026 
191 2 1 24.881 11.922 17.690 
192 2 1 26.927 10.427 18.013 
193 2 1 27.178  8.966 16.156 
194 2 1 26.494  7.375 14.340 
195 2 1 26.921  5.063 14.415 
196 2 1 28.741  4.469 15.687 
197 2 1 30.770  5.159 17.200 
198 2 1 31.549  7.579 17.743 
199 2 1 31.887  9.932 17.572 
200 2 1 31.917 12.287 16.958 
201 2 1 30.225 14.031 16.241 
202 2 1 28.620 15.683 17.450 
203 2 1 27.706 16.555 19.437 
204 2 1 26.528 16.053 21.306 
205 2 1 24.419 14.859 22.165 
206 2 1 22.816 14.399 23.826 
207 3 1  7.646 29.820 23.853 
208 3 1  6.334 32.067 23.826 
209 3 1  4.726 33.451 22.920 
210 3 1  3.261 34.268 21.105 
211 3 1 44.447 35.748 19.652 
212 3 1 43.258 37.295 18.610 
213 3 1 40.801 37.223 19.517 
214 3 1 38.522 36.608 20.135 
215 3 1 37.578 36.186 22.580 
216 3 1 36.468 36.008 24.849 
217 3 1 35.077 36.715 26.613 
218 3 1 32.455 36.811 26.804 
219 3 1 31.057 38.634 25.510 
220 3 1 29.712 40.434 24.134 
221 3 1 27.306 40.824 23.196 
222 3 1 25.021 41.265 22.111 
223 3 1 22.664 42.037 21.337 
224 3 1 20.149 42.576 20.749 
225 3 1 19.013 44.884 20.428 
226 3 1 18.438  3.921 20.849 
227 3 1 18.983  6.303 21.227 
228 3 1 19.644  8.753 20.673 
229 3 1 21.992  9.884 21.432 
230 3 1 24.392 10.098 22.241 
231 3 1 26.874 10.232 23.033 
232 3 1 29.002 10.391 21.609 
233 3 1 30.986 12.058 21.633 
234 3 1 32.207 14.086 21.200 
235 3 1 32.529 16.444 20.453 
236 3 1 32.459 18.976 20.155 
237 3 1 32.493 21.508 20.087 
238 3 1 32.925 24.052 19.715 
239 3 1 31.147 25.955 19.517 
240 3 1 29.058 27.350 19.252 
241 3 1 27.170 28.547 19.880 
242 3 1 25.374 27.490 21.380 
243 3 1 25.876 25.720 23.297 
244 3 1 26.396 23.854 24.947 
245 3 1 26.688 21.584 26.329 
246 3 1 27.032 19.294 27.354 
247 3 1 27.328 16.841 28.281 
248 3 1 25.646 14.905 27.631 
249 3 1 24.615 13.432 29.475 
250 3 1 23.503 11.985 31.335 
251 3 1 22.739 10.501 33.362 
252 3 1 22.184 10.267 35.555 
253 3 1 21.829 10.048 37.838 
254 3 1 23.264  9.196 39.786 
255 3 1 25.042  8.882 41.346 
256 3 1 27.288  9.841 42.480 
257 3 1 29.203 11.066 43.810 
258 3 1 31.307 12.035 45.183 
259 3 1 33.438 13.102 46.211 
260 3 1 35.559 14.530 46.904 
261 3 1 37.780 15.674 47.506 
262 3 1 38.394 17.510 46.209 
263 3 1 38.087 19.165 44.560 
264 3 1 37.397 20.124 42.269 
265 3 1 36.399 21.338 40.184 
266 3 1 35.239 22.952 38.497 
267 3 1 32.872 23.511 37.920 
268 3 1 30.668 23.491 38.568 
269 3 1 28.503 22.575 38.606 
270 3 1 28.195 20.665 36.938 
271 3 1 26.018 19.875 36.683 
272 3 1 23.826 18.811 37.345 
273 3 1 21.728 17.402 37.624 
274 3 1 19.535 16.130 38.087 
275 3 1 19.242 13.648 38.750 
276 3 1 17.666 12.843 40.680 
277 3 1 15.992 13.033 42.365 
278 3 1 13.922 13.946 43.547 
279 3 1 11.756 15.170 44.393 
280 3 1 10.095 15.591 45.825 
281 3 1  7.917 14.082 45.933 
282 3 1  6.362 12.603 45.240 
283 3 1  4.442 11.648 43.846 
284 3 1 44.475 10.604 42.880 
285 4 1 25.042 46.162  7.707 
286 4 1 23.919 46.705 10.027 
287 4 1 22.932  4.307 12.244 
288 4 1 20.582  3.773 13.376 
289 4 1 19.066  5.332 14.752 
290 4 1 17.381  6.840 16.049 
291 4 1 15.878  8.554 17.273 
292 4 1 13.441  9.189 16.988 
293 4 1 11.442  8.044 17.565 
294 4 1 10.004  6.050 18.390 
295 4 1  8.549  4.160 19.257 
296 4 1  7.414 45.222 20.210 
297 4 1  6.354 43.052 21.233 
298 4 1  4.995 41.198 22.418 
299 4 1 45.683 39.476 23.554 
300 4 1 44.188 37.469 24.156 
301 4 1 42.844 35.371 24.421 
302 4 1 41.457 33.645 23.885 
303 4 1 39.903 32.426 22.221 
304 4 1 38.250 30.978 21.779 
305 4 1 35.957 31.953 22.135 
306 4 1 33.724 33.106 22.380 
307 4 1 31.765 34.557 22.483 
308 4 1 29.435 34.976 23.559 
309 4 1 27.109 35.210 24.581 
310 4 1 26.512 35.035 27.008 
311 4 1 27.609 34.665 29.043 
312 4 1 29.949 33.733 28.513 
313 4 1 31.969 32.477 27.792 
314 4 1 34.188 32.468 29.123 
315 4 1 36.351 31.572 28.274 
316 4 1 38.500 30.604 27.381 
317 4 1 40.625 29.321 26.627 
318 4 1 41.814 27.681 25.341 
319 4 1 41.652 25.474 24.575 
320 4 1 39.766 24.594 23.453 
321 4 1 38.594 25.534 21.597 
322 4 1 37.261 27.139 20.094 
323 4 1 36.334 28.613 18.166 
324 4 1 37.760 30.178 16.743 
325 4 1 39.279 32.067 16.072 
326 4 1 41.005 33.359 14.804 
327 4 1 43.272 33.315 13.550 
328 4 1 42.994 33.873 11.209 
329 4 1 42.089 35.139  9.077 
330 4 1 43.379 37.217  8.729 
331 4 1 45.228 38.932  9.160 
332 4 1  4.573 40.969  9.310 
333 4 1  6.616 42.596  9.799 
334 4 1  8.539 44.175 10.498 
335 4 1 10.103 46.001 10.495 
336 4 1 11.371  4.865  9.534 
337 4 1 12.222  7.078  8.692 
338 4 1 11.964  8.170  6.406 
339 4 1 11.316  9.332  4.151 
340 4 1  9.230  8.684  3.349 
341 4 1  7.674  6.841  2.464 
342 4 1  6.011  5.147  1.400 
343 4 1  4.518  3.132  1.028 
344 4 1 44.847 44.822  1.020 
345 4 1 42.730 46.417  1.206 
346 4 1 40.703  4.695  1.722 
347 4 1 40.141  6.670  0.649 
348 4 1 39.991  8.564 -0.775 
349 4 1 39.334  9.587 -3.082 
350 4 1 41.292 10.353 -4.099 
351 4 1 43.692 11.314 -3.880 
352 4 1 46.117 11.882 -3.796 
353 4 1  6.307 12.563 -4.095 
354 4 1  8.681 13.546 -4.274 
355 4 1 10.938 13.722 -3.843 
356 4 1 13.295 12.986 -2.782 
357 4 1 15.527 12.794 -1.478 
358 4 1 17.625 12.792  0.086 
359 4 1 19.814 13.534  0.867 
360 4 1 21.772 14.270  1.845 
361 4 1 22.233 15.706  3.849 
362 4 1 22.721 17.741  4.995 
363 5 1 20.786  6.779  8.131 
364 5 1 18.545  5.467  8.290 
365 5 1 16.856  5.632 10.274 
366 5 1 15.296  5.813 12.230 
367 5 1 13.546  6.169 14.069 
368 5 1 11.625  4.479 14.576 
369 5 1  9.811 45.954 15.147 
370 5 1  8.192 43.906 15.493 
371 5 1  7.728 41.697 15.008 
372 5 1  7.462 39.533 14.170 
373 5 1  6.333 37.694 12.851 
374 5 1  5.194 36.062 11.218 
375 5 1  4.327 34.412  9.422 
376 5 1  5.703 34.402  7.483 
377 5 1  7.437 35.601  6.674 
378 5 1  7.486 37.284  5.038 
379 5 1  7.869 37.282  2.746 
380 5 1  9.170 36.621  0.590 
381 5 1  9.963 36.060 -1.764 
382 5 1 10.168 35.315 -4.226 
383 5 1  9.578 34.947 -6.388 
384 5 1  8.569 34.600 -8.495 
385 5 1  8.407 33.716 56.707 
386 5 1  8.307 32.844 54.323 
387 5 1  8.074 30.302 53.739 
388 5 1  7.785 27.842 53.053 
389 5 1  7.649 25.406 52.146 
390 5 1  7.398 23.327 53.206 
391 5 1  6.687 21.431 54.367 
392 5 1  6.245 18.954 54.804 
393 5 1  7.547 16.784 54.480 
394 5 1  8.449 14.457 54.117 
395 5 1  7.238 12.253 54.013 
396 5 1  5.796 10.141 54.029 
397 5 1  4.964  7.925 54.947 
398 5 1  3.218  6.746 55.736 
399 5 1 43.197  6.472 56.879 
400 5 1 40.785  6.223 58.130 
401 5 1 38.742  5.725 -7.981 
402 5 1 37.782  4.395 -6.440 
403 5 1 37.225 46.656 -4.360 
404 5 1 36.244 46.573 -1.973 
405 5 1 35.504 46.171  0.444 
406 5 1 34.553 45.808  2.796 
407 5 1 33.985 45.231  5.188 
408 5 1 33.359  3.862  6.975 
409 5 1 32.488  5.855  7.948 
410 5 1 31.571  8.261  7.959 
411 5 1 30.551 10.527  8.182 
412 5 1 31.825 12.732  7.648 
413 5 1 32.877 14.957  6.733 
414 5 1 33.841 17.294  5.929 
415 5 1 34.033 18.184  3.451 
416 5 1 34.411 19.187  1.113 
417 5 1 34.641 20.188 -1.317 
418 5 1 34.657 20.250 -3.630 
419 5 1 34.459 20.289 -5.994 
420 5 1 36.399 21.042 -7.048 
421 5 1 38.710 21.654 -7.590 
422 5 1 40.993 22.668 -7.636 
423 5 1 43.289 23.717 -7.845 
424 5 1 45.276 25.371 -7.913 
425 5 1 44.687 27.628 -7.317 
426 5 1 46.199 29.144 -8.441 
427 5 1  5.904 29.954 -9.529 
428 5 1  7.584 27.984 57.552 
429 5 1  8.359 25.844 58.052 
430 5 1  8.039 23.499 -8.538 
431 5 1  6.003 21.954 -8.379 
432 5 1  3.723 20.700 -8.067 
433 5 1 43.738 19.378 -7.733 
434 5 1 41.679 17.879 -7.323 
435 5 1 39.506 16.682 -6.787 
436 5 1 37.150 15.952 -6.041 
437 5 1 36.597 14.832 -3.698 
438 5 1 36.513 13.562 -1.349 
439 5 1 34.874 13.713  0.703 
440 5 1 34.104 12.363  2.805 
441 6 1  4.790  9.080 -8.389 
442 6 1  4.993 11.304 -9.248 
443 6 1  4.424 13.564 57.146 
444 6 1 44.406 14.108 56.073 
445 6 1 44.154 16.193 55.027 
446 6 1 44.922 18.073 53.424 
447 6 1 45.767 20.255 52.413 
448 6 1  4.397 20.676 50.077 
449 6 1  4.419 20.938 47.672 
450 6 1  3.804 21.080 45.285 
451 6 1  3.182 20.973 42.816 
452 6 1 44.816 21.056 40.313 
453 6 1 44.266 21.329 37.813 
454 6 1 44.669 21.268 35.626 
455 6 1 45.189 20.577 33.444 
456 6 1 45.059 18.044 33.119 
457 6 1 46.089 16.580 31.683 
458 6 1  5.740 14.995 31.043 
459 6 1  7.698 13.441 30.529 
460 6 1  9.578 12.959 32.335 
461 6 1  9.878 10.829 33.784 
462 6 1 10.401  9.087 35.567 
463 6 1 10.816  7.319 37.292 
464 6 1 10.158  5.758 38.843 
465 6 1  8.421  4.283 40.163 
466 6 1  6.798 45.974 41.357 
467 6 1  4.926 44.493 42.450 
468 6 1  3.179 42.991 43.531 
469 6 1 45.567 40.600 43.208 
470 6 1 46.275 39.416 45.503 
471 6 1  6.437 38.866 46.137 
472 6 1  8.907 38.493 46.655 
473 6 1 11.450 37.853 46.777 
474 6 1 13.551 38.881 46.959 
475 6 1 14.681 41.244 46.804 
476 6 1 15.808 43.555 46.793 
477 6 1 16.959 45.773 46.794 
478 6 1 18.453  4.761 46.814 
479 6 1 18.447  5.630 48.955 
480 6 1 18.777  5.755 51.522 
481 6 1 18.885  6.295 53.966 
482 6 1 19.673  4.225 54.991 
483 6 1 20.996 45.261 55.719 
484 6 1 22.680 43.781 54.436 
485 6 1 24.124 42.215 53.005 
486 6 1 24.785 40.993 51.226 
487 6 1 24.231 39.896 48.897 
488 6 1 23.837 38.582 46.643 
489 6 1 23.211 37.346 44.461 
490 6 1 23.543 35.694 42.803 
491 6 1 25.076 34.120 41.493 
492 6 1 27.037 33.020 40.144 
493 6 1 29.180 32.038 38.977 
494 6 1 31.461 31.819 38.214 
495 6 1 33.963 32.068 37.838 
496 6 1 34.635 34.202 38.445 
497 6 1 34.692 36.787 38.728 
498 6 1 34.227 38.594 37.041 
499 6 1 33.914 40.647 35.426 
500 6 1 33.882 42.520 33.786 
501 6 1 33.924 44.589 32.267 
502 6 1 33.642 46.823 31.102 
503 6 1 33.219  5.704 29.667 
504 6 1 31.877  7.321 28.607 
505 6 1 29.549  8.260 28.011 
506 6 1 26.927  8.452 27.914 
507 6 1 24.358  8.760 27.967 
508 6 1 21.812  8.945 28.384 
509 6 1 19.211  8.681 28.624 
510 6 1 16.924  7.513 28.602 
511 6 1 14.747  6.255 28.958 
512 6 1 12.706  4.555 28.900 
513 6 1 12.666 45.279 28.471 
514 6 1 13.112 42.910 28.303 
515 6 1 13.546 40.746 27.678 
516 6 1 11.646 39.094 28.361 
517 6 1  9.690 37.616 29.204 
518 6 1  7.882 35.746 29.914 
519 7 1 22.069  3.967 -8.192 
520 7 1 21.160 44.842 -7.668 
521 7 1 19.880 42.942 -8.189 
522 7 1 19.949 41.450 57.570 
523 7 1 21.249 39.840 55.995 
524 7 1 22.912 38.169 55.133 
525 7 1 24.716 36.379 54.489 
526 7 1 26.534 36.063 52.515 
527 7 1 29.080 36.683 52.793 
528 7 1 31.459 37.569 52.760 
529 7 1 33.949 38.043 52.823 
530 7 1 36.474 38.133 52.887 
531 7 1 37.202 35.889 52.678 
532 7 1 36.722 33.409 53.254 
533 7 1 36.426 31.308 52.563 
534 7 1 34.500 31.248 50.727 
535 7 1 34.496 29.383 48.909 
536 7 1 34.236 27.514 47.088 
537 7 1 33.814 25.721 45.304 
538 7 1 35.155 25.746 43.085 
539 7 1 36.377 27.088 41.569 
540 7 1 35.455 29.505 41.772 
541 7 1 35.970 31.181 43.672 
542 7 1 34.965 33.318 43.575 
543 7 1 32.971 34.823 43.158 
544 7 1 30.780 36.067 42.407 
545 7 1 28.709 37.329 41.689 
546 7 1 26.842 38.982 41.310 
547 7 1 25.872 40.996 40.854 
548 7 1 26.431 43.440 40.342 
549 7 1 27.644 45.762 40.143 
550 7 1 28.520  5.003 40.362 
551 7 1 29.577  6.354 41.722 
552 7 1 31.185  6.790 43.727 
553 7 1 32.796  7.428 45.633 
554 7 1 33.268  6.137 47.887 
555 7 1 33.979  4.707 49.993 
556 7 1 34.697 45.872 51.398 
557 7 1 34.216 44.062 52.781 
558 7 1 33.846 42.356 54.324 
559 7 1 33.609 41.171 56.413 
560 7 1 31.903 40.115 58.100 
561 7 1 30.214 39.030 -7.936 
562 7 1 28.729 38.245 -5.952 
563 7 1 27.073 37.310 -4.282 
564 7 1 25.153 36.348 -2.925 
565 7 1 23.453 35.543 -1.222 
566 7 1 23.436 36.612  1.167 
567 7 1 24.363 36.977  3.366 
568 7 1 26.239 36.865  5.045 
569 7 1 28.252 36.727  6.496 
570 7 1 30.310 36.442  7.915 
571 7 1 32.605 36.445  8.344 
572 7 1 35.192 36.423  7.788 
573 7 1 37.463 37.288  7.825 
574 7 1 39.299 39.186  8.199 
575 7 1 40.887 41.077  8.955 
576 7 1 42.452 42.608 10.300 
577 7 1 44.154 43.676 11.905 
578 7 1 45.948 45.124 12.954 
579 7 1  5.585 46.838 12.925 
580 7 1  7.230  5.773 12.821 
581 7 1  8.860  7.721 12.659 
582 7 1 10.340  9.862 12.939 
583 7 1 11.934 11.938 13.250 
584 7 1 13.512 13.932 13.940 
585 7 1 13.110 14.516 16.212 
586 7 1 12.587 13.824 18.661 
587 7 1 13.804 12.614 20.731 
588 7 1 13.640 10.218 21.719 
589 7 1 13.687  7.732 22.450 
590 7 1 15.012  6.477 24.335 
591 7 1 15.648  4.026 24.337 
592 7 1 16.181 44.633 24.348 
593 7 1 16.057 42.579 23.153 
594 7 1 15.648 41.407 20.856 
595 7 1 15.565 40.223 18.645 
596 7 1 15.451 38.874 16.432 
597 8 1 10.405  7.046 -6.136 
598 8 1 12.697  7.626 -5.944 
599 8 1 14.613  8.640 -4.575 
600 8 1 15.095  8.320 -1.966 
601 8 1 15.687  7.692  0.492 
602 8 1 17.478  8.594  2.185 
603 8 1 17.066  9.357  4.627 
604 8 1 16.722  9.763  7.075 
605 8 1 16.380  9.850  9.595 
606 8 1 16.725 10.706 12.069 
607 8 1 17.320 11.782 14.302 
608 8 1 17.856 12.769 16.634 
609 8 1 18.545 13.704 18.934 
610 8 1 18.170 13.036 21.463 
611 8 1 17.693 13.198 23.981 
612 8 1 16.261 12.328 25.524 
613 8 1 14.134 11.108 26.389 
614 8 1 11.885 10.111 27.100 
615 8 1  9.746  9.684 28.296 
616 8 1  7.492  9.313 29.467 
617 8 1  6.331  7.086 30.072 
618 8 1  5.197  4.870 30.888 
619 8 1  3.770 46.048 31.613 
620 8 1 44.493 44.270 32.270 
621 8 1 42.670 42.339 32.224 
622 8 1 42.211 40.191 32.768 
623 8 1 42.461 37.985 34.044 
624 8 1 41.424 36.281 35.419 
625 8 1 39.489 35.030 36.353 
626 8 1 38.802 35.836 38.433 
627 8 1 39.377 34.098 40.256 
628 8 1 39.945 32.362 42.042 
629 8 1 41.998 32.681 43.625 
630 8 1 42.812 30.901 45.389 
631 8 1 43.358 28.626 46.459 
632 8 1 45.106 28.370 48.427 
633 8 1  4.753 27.114 47.919 
634 8 1  6.897 26.726 46.510 
635 8 1  8.999 26.452 47.881 
636 8 1 10.372 28.444 48.735 
637 8 1 11.887 29.940 50.160 
638 8 1 12.833 30.488 52.515 
639 8 1 13.437 30.958 54.899 
640 8 1 12.213 30.306 57.108 
641 8 1 11.020 30.084 -8.206 
642 8 1  9.904 30.038 -5.878 
643 8 1  8.995 30.422 -3.481 
644 8 1  7.431 30.860 -1.886 
645 8 1  5.118 30.793 -0.839 
646 8 1  4.230 29.041  0.942 
647 8 1  3.397 27.583  2.896 
648 8 1 45.987 26.435  4.831 
649 8 1  4.892 26.024  7.113 
650 8 1  6.271 25.771  9.260 
651 8 1  8.574 26.854  9.743 
652 8 1 10.797 27.948 10.386 
653 8 1 12.771 29.364 11.211 
654 8 1 14.784 30.740 12.106 
655 8 1 16.622 32.111 13.231 
656 8 1 18.380 33.470 14.338 
657 8 1 19.942 35.009 15.632 
658 8 1 19.653 36.147 17.976 
659 8 1 19.240 37.269 20.221 
660 8 1 17.867 37.563 22.036 
661 8 1 16.028 37.142 23.793 
662 8 1 14.614 36.799 25.964 
663 8 1 12.980 34.898 26.597 
664 8 1 10.793 34.957 25.734 
665 8 1  9.359 35.624 23.661 
666 8 1  8.102 36.523 21.706 
667 8 1  6.777 37.534 19.671 
668 8 1  5.298 38.517 17.772 
669 8 1  3.487 39.595 16.276 
670 8 1 43.884 39.426 14.912 
671 8 1 42.117 38.382 13.493 
672 8 1 39.774 38.041 14.325 
673 8 1 38.286 36.890 12.763 
674 8 1 36.251 37.984 12.174 
675 9 1 28.341  9.333 37.487 
676 9 1 26.601  7.523 37.478 
677 9 1 25.147  5.398 37.604 
678 9 1 24.070  3.067 37.854 
679 9 1 22.963 43.948 38.351 
680 9 1 21.739 41.755 38.960 
681 9 1 20.410 39.586 39.613 
682 9 1 19.526 37.340 40.556 
683 9 1 18.391 35.361 41.639 
684 9 1 16.499 34.306 42.864 
685 9 1 15.393 33.600 44.819 
686 9 1 15.328 32.327 47.096 
687 9 1 17.104 31.136 48.494 
688 9 1 17.234 30.940 51.086 
689 9 1 17.391 30.468 53.638 
690 9 1 17.429 29.989 56.165 
691 9 1 16.729 30.352 58.287 
692 9 1 15.397 31.602 -7.438 
693 9 1 14.326 33.497 -8.552 
694 9 1 13.501 35.220 57.373 
695 9 1 14.182 35.314 54.893 
696 9 1 14.975 35.518 52.507 
697 9 1 15.953 36.149 50.195 
698 9 1 17.157 36.767 47.982 
699 9 1 18.226 37.423 45.664 
700 9 1 19.502 39.531 45.073 
701 9 1 21.154 41.517 44.515 
702 9 1 22.496 43.797 44.327 
703 9 1 24.823 43.826 44.727 
704 9 1 26.634 43.140 46.493 
705 9 1 28.317 42.608 48.503 
706 9 1 30.021 42.179 50.423 
707 9 1 29.363 42.428 52.672 
708 9 1 28.240 41.637 54.847 
709 9 1 26.685 40.897 56.793 
710 9 1 25.099 40.057 -8.970 
711 9 1 23.692 39.282 -7.021 
712 9 1 21.927 38.802 -5.383 
713 9 1 19.832 38.746 -3.936 
714 9 1 18.615 38.694 -1.877 
715 9 1 18.187 38.204  0.643 
716 9 1 17.736 38.043  3.220 
717 9 1 19.483 38.211  5.043 
718 9 1 21.465 38.140  6.587 
719 9 1 23.446 38.025  8.180 
720 9 1 25.389 37.873  9.653 
721 9 1 27.230 38.841 10.332 
722 9 1 29.172 40.594 10.006 
723 9 1 28.266 41.803  8.157 
724 9 1 26.402 42.073  6.443 
725 9 1 24.930 42.122  4.476 
726 9 1 23.120 41.911  2.602 
727 9 1 20.970 41.173  1.350 
728 9 1 20.738 42.676 -0.397 
729 9 1 21.603 44.693 -1.748 
730 9 1 22.453 46.778 -3.029 
731 9 1 23.260  5.835 -4.179 
732 9 1 25.020  7.450 -3.229 
733 9 1 26.985  8.080 -2.285 
734 9 1 28.900  7.598 -0.620 
735 9 1 30.751  7.107  1.151 
736 9 1 30.402  5.442  3.129 
737 9 1 28.950  6.565  4.471 
738 9 1 27.250  7.632  5.760 
739 9 1 26.257  8.625  7.974 
740 9 1 25.367  9.612 10.178 
741 9 1 25.424 11.170 12.033 
742 9 1 26.160 13.271 13.264 
743 9 1 26.393 15.591 13.800 
744 9 1 28.015 17.435 12.798 
745 9 1 29.545 18.968 11.365 
746 9 1 30.494 20.536  9.410 
747 9 1 31.567 21.988  7.484 
748 9 1 32.479 23.025  5.314 
749 9 1 33.949 23.649  3.652 
750 9 1 36.102 24.236  2.421 
751 9 1 37.590 24.556  0.729 
752 9 1 38.465 24.444 -1.730 
753 10 1 25.477 40.165 35.544 
754 10 1 24.597 41.744 33.627 
755 10 1 23.779 43.148 31.673 
756 10 1 22.801 44.398 29.683 
757 10 1 22.287  3.420 30.168 
758 10 1 20.809  5.097 31.480 
759 10 1 19.342  6.847 32.579 
760 10 1 17.982  8.860 33.773 
761 10 1 16.821 10.975 34.768 
762 10 1 15.745 13.163 35.813 
763 10 1 13.565 13.576 37.161 
764 10 1 11.560 14.222 38.667 
765 10 1  9.557 13.915 40.259 
766 10 1  7.682 12.884 39.301 
767 10 1  6.227 11.057 38.092 
768 10 1  5.108 10.351 36.153 
769 10 1  3.884  9.517 34.346 
770 10 1 44.890  7.863 32.770 
771 10 1 43.054  6.159 33.492 
772 10 1 41.732  4.777 34.907 
773 10 1 41.026  3.663 37.181 
774 10 1 40.086  2.964 39.326 
775 10 1 40.116 43.803 40.444 
776 10 1 39.217 43.390 42.842 
777 10 1 40.638 42.568 44.872 
778 10 1 41.925 41.863 46.993 
779 10 1 43.583 41.848 48.666 
780 10 1 45.817 42.304 49.788 
781 10 1  5.896 41.931 50.683 
782 10 1  8.082 41.631 49.286 
783 10 1  9.918 42.424 48.132 
784 10 1 11.178 43.262 50.012 
785 10 1 12.019 42.686 52.370 
786 10 1 12.586 41.934 54.705 
787 10 1 12.376 41.411 56.907 
788 10 1 12.185 39.213 57.892 
789 10 1 11.259 39.001 -7.543 
790 10 1  8.783 39.326 -7.749 
791 10 1  6.432 40.281 -7.368 
792 10 1  4.323 41.438 -7.656 
793 10 1 45.065 40.702 -9.614 
794 10 1 43.922 39.777 55.771 
795 10 1 43.046 38.835 53.557 
796 10 1 42.022 37.788 51.381 
797 10 1 40.839 36.869 49.248 
798 10 1 41.977 35.775 47.244 
799 10 1 41.989 36.722 44.843 
800 10 1 42.105 37.708 42.550 
801 10 1 41.932 38.689 40.152 
802 10 1 42.157 40.300 38.538 
803 10 1 42.779 42.406 37.164 
804 10 1 45.024 43.614 36.669 
805 10 1  5.183 43.880 36.791 
806 10 1  7.539 43.160 37.274 
807 10 1  9.941 42.377 37.741 
808 10 1  9.793 40.946 39.458 
809 10 1  8.259 39.891 40.983 
810 10 1  6.030 39.196 40.426 
811 10 1  4.296 38.489 39.109 
812 10 1  4.645 39.246 36.593 
813 10 1  5.255 39.142 34.332 
814 10 1  6.764 39.148 32.487 
815 10 1  7.999 41.330 32.354 
816 10 1  9.118 43.589 32.719 
817 10 1  9.408 45.903 33.243 
818 10 1  8.550  4.959 33.920 
819 10 1  6.523  5.304 35.446 
820 10 1  4.576  5.565 37.010 
821 10 1 45.167  5.894 39.031 
822 10 1  4.124  6.866 40.694 
823 10 1  6.217  7.269 42.110 
824 10 1  8.272  7.914 43.602 
825 10 1  9.901  6.555 44.985 
826 10 1 11.482  5.479 46.878 
827 10 1 12.852  4.450 48.718 
828 10 1 13.968  3.739 50.910 
829 10 1 14.888 45.484 52.852 
830 10 1 17.081 44.088 52.638 
831 11 1 31.088  6.037 12.510 
832 11 1 30.550  8.462 12.871 
833 11 1 31.057 10.786 12.696 
834 11 1 32.425 12.937 12.220 
835 11 1 33.887 14.919 11.741 
836 11 1 35.744 16.732 11.242 
837 11 1 37.243 18.692 10.383 
838 11 1 38.066 20.917 10.409 
839 11 1 38.135 23.407 11.317 
840 11 1 38.319 25.376 12.849 
841 11 1 36.678 27.471 13.091 
842 11 1 34.710 28.721 12.638 
843 11 1 32.201 27.857 13.176 
844 11 1 29.982 26.986 14.028 
845 11 1 27.837 25.589 14.599 
846 11 1 25.542 26.427 13.954 
847 11 1 23.193 27.000 12.948 
848 11 1 22.313 26.165 10.612 
849 11 1 21.295 25.609  8.310 
850 11 1 20.116 25.246  5.981 
851 11 1 18.975 24.806  3.706 
852 11 1 17.842 24.381  1.400 
853 11 1 16.567 23.970 -0.842 
854 11 1 15.227 24.022 -3.057 
855 11 1 12.722 23.895 -3.316 
856 11 1 10.252 24.011 -3.899 
857 11 1  8.014 24.861 -4.214 
858 11 1  5.906 25.935 -3.810 
859 11 1  3.766 25.963 -2.463 
860 11 1 44.101 25.377 -0.819 
861 11 1 42.693 24.606  1.247 
862 11 1 41.402 25.226  3.089 
863 11 1 40.400 25.857  5.138 
864 11 1 38.939 24.907  6.767 
865 11 1 38.700 22.449  6.035 
866 11 1 39.211 20.346  4.890 
867 11 1 38.973 19.808  2.552 
868 11 1 38.817 18.758  0.236 
869 11 1 38.938 18.787 -2.096 
870 11 1 41.199 19.669 -3.026 
871 11 1 43.413 20.943 -3.416 
872 11 1 45.699 21.353 -3.384 
873 11 1  5.784 20.551 -3.597 
874 11 1  8.035 20.550 -3.071 
875 11 1 10.084 19.962 -2.094 
876 11 1 11.994 18.265 -1.542 
877 11 1 14.064 16.983 -0.789 
878 11 1 15.490 17.320  1.341 
879 11 1 17.021 17.984  3.280 
880 11 1 17.975 19.457  4.926 
881 11 1 18.215 20.732  6.744 
882 11 1 18.704 21.454  8.851 
883 11 1 20.152 21.891 10.857 
884 11 1 21.481 22.378 13.015 
885 11 1 23.076 21.147 14.609 
886 11 1 24.957 19.777 15.887 
887 11 1 27.447 20.560 16.138 
888 11 1 29.747 20.797 15.447 
889 11 1 31.381 21.550 13.909 
890 11 1 32.653 23.224 12.394 
891 11 1 33.876 24.561 10.621 
892 11 1 34.750 25.791  8.552 
893 11 1 35.374 27.254  6.510 
894 11 1 35.696 28.388  4.205 
895 11 1 36.046 29.365  1.873 
896 11 1 34.994 28.733 -0.384 
897 11 1 33.795 27.400 -1.708 
898 11 1 32.240 25.572 -2.272 
899 11 1 31.022 24.022 -0.662 
900 11 1 30.476 22.201  1.089 
901 11 1 29.315 20.651  2.610 
902 11 1 28.381 19.553  4.362 
903 11 1 28.314 17.827  6.306 
904 11 1 27.952 16.024  8.014 
905 11 1 26.585 14.826  9.232 
906 11 1 25.150 13.492  7.641 
907 11 1 24.403 12.388  5.723 
908 11 1 25.028 11.195  3.593 
909 12 1  3.968 10.529 20.400 
910 12 1  4.547  8.312 20.927 
911 12 1  5.026  6.161 21.729 
912 12 1  4.472  4.015 22.969 
913 12 1  3.781 45.197 24.345 
914 12 1  3.244 43.143 25.817 
915 12 1 44.940 41.349 27.495 
916 12 1 45.066 39.371 28.766 
917 12 1 45.177 37.484 29.993 
918 12 1 45.296 35.610 31.429 
919 12 1 46.221 33.846 33.215 
920 12 1  5.449 34.239 35.281 
921 12 1  6.631 34.699 37.514 
922 12 1  8.649 35.723 37.173 
923 12 1 10.308 37.293 35.932 
924 12 1 11.895 39.137 34.999 
925 12 1 13.516 40.915 34.093 
926 12 1 15.094 42.607 32.825 
927 12 1 16.664 43.845 31.304 
928 12 1 17.981 44.982 29.417 
929 12 1 19.102 46.198 27.452 
930 12 1 20.620  3.442 25.675 
931 12 1 22.684 45.937 24.567 
932 12 1 25.114  2.964 25.504 
933 12 1 27.587  2.983 26.405 
934 12 1 30.047  3.077 27.208 
935 12 1 31.857 45.575 25.708 
936 12 1 33.729 45.601 23.849 
937 12 1 35.732 45.822 22.169 
938 12 1 38.040 45.963 20.804 
939 12 1 39.283  4.830 19.743 
940 12 1 40.351  6.851 18.434 
941 12 1 41.544  8.782 17.141 
942 12 1 42.708 10.688 16.004 
943 12 1 43.989 12.718 15.979 
944 12 1 44.159 14.919 16.648 
945 12 1 43.171 17.180 17.311 
946 12 1 42.278 17.689 19.601 
947 12 1 41.232 18.279 21.814 
948 12 1 40.164 19.212 23.993 
949 12 1 39.470 20.836 25.915 
950 12 1 37.677 20.190 27.314 
951 12 1 35.974 19.967 29.009 
952 12 1 34.200 19.322 30.258 
953 12 1 32.742 17.628 31.542 
954 12 1 31.793 15.355 30.875 
955 12 1 30.382 13.331 30.283 
956 12 1 28.685 12.014 31.732 
957 12 1 29.202  9.711 32.891 
958 12 1 27.512  7.663 32.892 
959 12 1 26.120  5.464 32.659 
960 12 1 27.168  3.158 31.987 
961 12 1 28.341 44.179 31.075 
962 12 1 29.631 42.125 30.232 
963 12 1 30.303 40.006 31.464 
964 12 1 31.280 37.798 32.140 
965 12 1 32.697 35.663 32.572 
966 12 1 34.581 34.074 33.187 
967 12 1 36.590 32.451 33.777 
968 12 1 36.841 30.095 32.952 
969 12 1 36.481 27.977 31.780 
970 12 1 34.462 28.246 30.207 
971 12 1 32.199 28.032 29.041 
972 12 1 30.031 27.270 27.918 
973 12 1 27.934 26.386 28.018 
974 12 1 25.689 26.133 29.117 
975 12 1 24.749 23.927 30.092 
976 12 1 23.869 21.789 31.148 
977 12 1 22.776 19.595 31.991 
978 12 1 21.607 17.494 32.783 
979 12 1 20.369 15.523 32.448 
980 12 1 18.954 13.859 31.130 
981 12 1 17.085 12.494 30.584 
982 12 1 14.787 11.421 30.968 
983 12 1 13.553  9.667 31.865 
984 12 1 13.358  7.294 32.674 
985 12 1 13.375  4.862 33.418 
986 12 1 13.829  3.351 35.344 