LAMMPS data file generated by aa2cg.

2000 atoms
1 atom types
1975 bonds
1 bond types
1950 angles
1 angle types
1925 dihedrals
1 dihedral types

 0.000 61.795 xlo xhi
 0.000 43.496 ylo yhi
 0.000 46.084 zlo zhi

Masses

1 24.022

Atoms # molecular

1 1 1 15.764 19.435 10.234 
2 1 1 52.856 10.255 28.029 
3 2 1 -3.560 24.268  3.849 
4 2 1 32.174 41.438 22.483 
5 3 1 37.615 33.000  9.741 
6 3 1 29.587 35.646  9.046 
7 4 1  7.753 37.042 47.934 
8 4 1 34.455  9.413 33.248 
9 5 1 29.343 45.217 12.078 
10 5 1 35.804  8.015 40.700 
11 6 1  3.126 25.814 42.643 
12 6 1 45.376 43.453 26.370 
13 7 1  0.891  8.557 30.179 
14 7 1 28.448 37.607 18.475 
15 8 1  7.347 24.626  6.866 
16 8 1 14.715 24.649 47.444 
17 9 1 30.897 27.676 27.255 
18 9 1 29.528 15.082 24.351 
19 10 1  0.234 17.350 26.526 
20 10 1 42.082 45.067 14.435 
21 11 1 27.766 13.679 36.962 
22 11 1 40.897 19.140 27.441 
23 12 1 31.902 34.418  2.019 
24 12 1 16.059 28.697 11.449 
25 13 1 45.385 13.242  2.555 
26 13 1 25.294 43.315 13.207 
27 14 1 51.379 39.637 43.411 
28 14 1  6.853  2.620 23.392 
29 15 1 39.180 33.158 16.619 
30 15 1 54.502 39.584 33.810 
31 16 1 -0.748 25.846 30.735 
32 16 1 12.526 24.584 40.777 
33 17 1 -1.249 39.980 10.093 
34 17 1 50.535 19.675 19.533 
35 18 1 46.828 22.728  8.087 
36 18 1 21.924 13.662 43.032 
37 19 1 -3.825 30.854 41.931 
38 19 1  2.659 30.596 19.807 
39 20 1 55.271 21.888 14.861 
40 20 1  6.574  5.325 11.251 
41 21 1 25.825 29.173 28.152 
42 21 1 49.736 31.279 28.584 
43 22 1 15.667 42.979 19.894 
44 22 1 -1.400 17.806  7.841 
45 23 1 45.990 17.092 20.947 
46 23 1 28.070 13.251  2.258 
47 24 1 25.738 43.058 29.150 
48 24 1 -0.102 21.471 11.841 
49 25 1  4.744  5.132 46.656 
50 25 1 25.413 28.968 10.415 
51 1 1 17.633 17.525  9.876 
52 1 1 19.160 16.391 11.639 
53 1 1 20.675 15.057 13.264 
54 1 1 22.240 13.580 14.632 
55 1 1 24.231 12.487 15.778 
56 1 1 26.714 13.141 15.789 
57 1 1 29.253 13.549 15.745 
58 1 1 31.773 13.671 15.044 
59 1 1 33.653 11.806 15.234 
60 1 1 35.508 10.158 15.593 
61 1 1 36.293  8.031 15.926 
62 1 1 36.585  5.452 16.328 
63 1 1 34.396  4.300 16.419 
64 1 1 31.919  4.149 16.486 
65 1 1 29.316  4.105 16.801 
66 1 1 26.745  3.782 16.639 
67 1 1 24.173  3.553 16.125 
68 1 1 21.784  3.263 15.139 
69 1 1 19.781  2.136 14.382 
70 1 1 18.136 43.684 14.013 
71 1 1 17.907 42.740 11.880 
72 1 1 15.643 42.718 10.849 
73 1 1 13.411 42.860  9.610 
74 1 1 11.138 43.323  8.490 
75 1 1  8.909 43.849  8.399 
76 1 1  6.640 44.453  9.393 
77 1 1  4.271 45.184 10.344 
78 1 1  1.862 45.454 10.677 
79 1 1 -0.649 45.703 10.797 
80 1 1 -2.851 45.316 10.122 
81 1 1 -4.533 44.081  8.498 
82 1 1 -5.970 42.726  6.886 
83 1 1 54.102 41.700  5.270 
84 1 1 52.407 40.921  3.628 
85 1 1 51.496 39.157  2.435 
86 1 1 51.116 36.743  1.598 
87 1 1 50.772 34.273 47.034 
88 1 1 50.380 31.765 46.571 
89 1 1 50.452 29.417 45.675 
90 1 1 49.838 27.016 45.042 
91 1 1 48.699 25.608 43.664 
92 1 1 48.358 24.759 41.530 
93 1 1 49.425 25.753 39.391 
94 1 1 50.268 26.900 37.206 
95 1 1 51.456 28.058 35.311 
96 1 1 52.235 29.275 33.213 
97 1 1 54.217 28.751 31.764 
98 1 1 -5.404 28.755 30.652 
99 1 1 -4.567 31.222 30.590 
100 1 1 -3.773 33.599 30.839 
101 1 1 -4.846 35.474 29.945 
102 1 1 55.276 36.931 28.901 
103 1 1 54.681 38.276 26.921 
104 1 1 54.080 39.714 24.897 
105 1 1 53.238 41.021 22.835 
106 1 1 54.636 42.600 21.307 
107 1 1 -5.988 44.156 19.649 
108 1 1 -4.887 45.720 17.978 
109 1 1 -3.845  4.047 16.511 
110 1 1 -3.376  5.798 14.731 
111 1 1 -3.595  7.467 12.786 
112 1 1 -3.999  9.173 10.807 
113 1 1 -4.362 10.829  8.901 
114 1 1 55.122 11.929  8.739 
115 1 1 52.821 13.052  9.003 
116 1 1 50.386 14.010  9.061 
117 1 1 49.882 15.097 11.123 
118 1 1 47.718 14.779 12.033 
119 1 1 45.345 14.233 12.263 
120 1 1 43.271 12.690 12.769 
121 1 1 43.829 10.507 13.066 
122 1 1 44.983  8.454 14.115 
123 1 1 46.939  8.917 15.861 
124 1 1 49.128  9.273 17.257 
125 1 1 51.124  9.836 18.778 
126 1 1 53.052 10.590 20.406 
127 1 1 53.250 10.244 23.003 
128 1 1 53.044 10.172 25.536 
129 2 1 -3.226 24.922  1.411 
130 2 1 -2.857 25.939 45.177 
131 2 1 -2.278 26.829 42.924 
132 2 1 -1.745 26.376 40.688 
133 2 1 -0.673 25.185 38.960 
134 2 1  1.417 24.544 37.636 
135 2 1  3.403 23.696 36.061 
136 2 1  5.294 22.882 34.525 
137 2 1  7.418 22.177 33.007 
138 2 1  9.591 21.721 31.770 
139 2 1 10.971 19.633 30.816 
140 2 1 12.286 17.695 29.979 
141 2 1 13.686 15.562 29.419 
142 2 1 15.195 13.587 28.912 
143 2 1 16.780 11.635 28.407 
144 2 1 18.032  9.498 28.165 
145 2 1 18.924  7.107 28.138 
146 2 1 19.585  4.586 27.904 
147 2 1 19.901 45.691 27.143 
148 2 1 19.340 43.473 26.727 
149 2 1 17.715 41.399 26.412 
150 2 1 15.560 40.917 27.791 
151 2 1 13.303 40.477 28.955 
152 2 1 11.775 40.849 30.710 
153 2 1 11.136 40.548 32.989 
154 2 1  8.540 40.567 33.408 
155 2 1  7.166 39.280 35.296 
156 2 1  4.868 38.118 34.883 
157 2 1  2.657 36.998 34.368 
158 2 1  0.578 37.022 33.249 
159 2 1 -0.903 37.490 31.209 
160 2 1 -2.585 39.325 30.513 
161 2 1 -2.581 40.553 28.260 
162 2 1 -1.974 41.760 26.021 
163 2 1 -3.200 43.788 25.604 
164 2 1 -5.272 45.144 25.387 
165 2 1 54.286  2.834 25.069 
166 2 1 51.923 45.333 25.264 
167 2 1 50.367 43.668 25.756 
168 2 1 49.348 41.311 26.102 
169 2 1 47.727 39.620 25.948 
170 2 1 45.624 38.368 25.420 
171 2 1 43.647 36.865 24.718 
172 2 1 41.424 36.061 24.469 
173 2 1 39.652 35.007 25.171 
174 2 1 38.094 33.716 26.279 
175 2 1 35.798 33.209 27.358 
176 2 1 33.547 32.512 28.496 
177 2 1 31.407 31.989 29.693 
178 2 1 29.246 31.290 30.944 
179 2 1 27.862 33.067 32.091 
180 2 1 25.459 33.121 32.859 
181 2 1 23.864 35.130 33.058 
182 2 1 21.449 34.844 33.826 
183 2 1 19.528 33.687 33.897 
184 2 1 18.325 31.739 34.288 
185 2 1 17.695 29.472 35.421 
186 2 1 17.255 28.640 37.780 
187 2 1 16.636 27.801 40.107 
188 2 1 16.994 25.589 41.276 
189 2 1 17.429 23.523 42.769 
190 2 1 18.009 21.463 44.236 
191 2 1 20.280 20.335 44.455 
192 2 1 22.501 19.064 44.613 
193 2 1 24.476 17.614 44.199 
194 2 1 26.204 15.875 43.491 
195 2 1 27.938 14.067 42.868 
196 2 1 29.615 12.192 42.183 
197 2 1 30.547 10.530 40.805 
198 2 1 30.926  9.089 38.767 
199 2 1 31.433  7.425 36.854 
200 2 1 32.274  5.678 35.198 
201 2 1 33.486  4.411 33.224 
202 2 1 34.777  3.357 31.255 
203 2 1 35.552 45.645 29.075 
204 2 1 35.913 44.623 26.664 
205 2 1 36.045 43.536 24.302 
206 2 1 33.979 42.783 22.912 
207 3 1 37.005 32.909 12.072 
208 3 1 36.321 31.639 14.169 
209 3 1 35.539 30.647 16.429 
210 3 1 34.679 29.639 18.665 
211 3 1 33.700 28.024 20.468 
212 3 1 34.946 25.914 20.568 
213 3 1 36.048 23.864 19.532 
214 3 1 37.313 21.915 18.546 
215 3 1 38.149 19.512 18.197 
216 3 1 38.940 17.453 18.933 
217 3 1 39.983 15.883 20.676 
218 3 1 41.019 13.998 22.157 
219 3 1 41.819 11.810 23.213 
220 3 1 42.218 11.203 25.677 
221 3 1 42.559 10.175 28.093 
222 3 1 43.565  9.092 30.253 
223 3 1 44.538  8.076 32.495 
224 3 1 44.617  7.854 34.803 
225 3 1 44.020  8.336 37.293 
226 3 1 43.223 10.531 37.488 
227 3 1 42.351 12.898 36.887 
228 3 1 42.302 13.991 34.521 
229 3 1 42.329 14.631 32.081 
230 3 1 42.492 15.110 29.525 
231 3 1 42.993 15.560 27.019 
232 3 1 44.340 15.783 25.119 
233 3 1 46.797 15.552 24.449 
234 3 1 49.214 15.266 23.615 
235 3 1 51.402 14.791 22.375 
236 3 1 53.411 14.510 20.862 
237 3 1 55.581 14.981 19.860 
238 3 1 -5.213 16.429 18.345 
239 3 1 -4.614 18.452 17.090 
240 3 1 -3.086 20.526 16.739 
241 3 1 -1.405 22.465 16.864 
242 3 1 -1.029 24.124 18.879 
243 3 1 -0.408 25.822 20.695 
244 3 1 -1.902 27.683 20.998 
245 3 1 -3.912 29.102 21.367 
246 3 1 -5.688 30.176 20.459 
247 3 1 54.563 31.007 18.646 
248 3 1 52.901 29.549 17.631 
249 3 1 50.439 29.863 17.040 
250 3 1 48.692 27.918 16.807 
251 3 1 46.114 27.958 16.725 
252 3 1 43.596 28.064 17.179 
253 3 1 41.149 27.981 17.717 
254 3 1 39.099 27.139 17.135 
255 3 1 37.511 25.988 15.405 
256 3 1 35.921 25.002 13.676 
257 3 1 34.483 23.529 14.813 
258 3 1 32.685 23.109 16.616 
259 3 1 30.668 22.617 18.270 
260 3 1 28.656 22.203 19.810 
261 3 1 26.815 21.971 21.570 
262 3 1 25.851 20.647 23.174 
263 3 1 25.717 18.292 24.291 
264 3 1 25.905 16.176 25.616 
265 3 1 26.499 14.083 27.021 
266 3 1 26.745 11.560 26.773 
267 3 1 27.389  9.102 26.576 
268 3 1 27.242  6.958 25.547 
269 3 1 27.054  7.371 23.023 
270 3 1 26.438  9.006 21.506 
271 3 1 25.581 11.330 20.945 
272 3 1 24.229 13.475 20.498 
273 3 1 23.187 15.732 19.769 
274 3 1 22.972 18.093 18.835 
275 3 1 22.453 20.399 17.722 
276 3 1 23.478 22.693 17.975 
277 3 1 24.524 24.878 18.824 
278 3 1 25.852 26.775 19.666 
279 3 1 25.266 29.182 20.227 
280 3 1 24.932 30.743 18.548 
281 3 1 24.468 31.912 16.558 
282 3 1 25.211 33.204 14.466 
283 3 1 25.812 34.432 12.253 
284 3 1 27.845 34.801 10.786 
285 4 1  6.607 35.722  3.727 
286 4 1  5.692 33.953  5.367 
287 4 1  5.090 31.699  6.373 
288 4 1  4.251 29.603  7.645 
289 4 1  3.553 27.548  9.007 
290 4 1  3.415 25.437 10.280 
291 4 1  3.217 24.983 12.764 
292 4 1  4.285 22.944 14.031 
293 4 1  6.566 22.702 15.343 
294 4 1  8.861 22.570 16.583 
295 4 1 11.245 22.388 17.510 
296 4 1 13.669 22.367 17.981 
297 4 1 14.728 21.954 20.281 
298 4 1 15.944 21.963 22.469 
299 4 1 17.409 21.694 24.577 
300 4 1 19.318 21.641 26.342 
301 4 1 20.717 21.605 28.413 
302 4 1 22.799 20.063 28.988 
303 4 1 24.947 18.740 29.500 
304 4 1 27.030 17.352 29.950 
305 4 1 28.947 15.790 30.714 
306 4 1 30.301 16.280 32.628 
307 4 1 32.155 17.357 34.129 
308 4 1 33.812 18.890 35.386 
309 4 1 35.191 20.122 37.111 
310 4 1 35.264 21.766 38.685 
311 4 1 34.564 23.983 39.802 
312 4 1 33.622 25.958 41.118 
313 4 1 32.600 27.722 42.762 
314 4 1 31.118 29.860 42.346 
315 4 1 29.003 31.341 42.014 
316 4 1 26.753 32.572 41.796 
317 4 1 24.387 33.465 41.687 
318 4 1 22.656 33.005 43.645 
319 4 1 21.233 32.331 45.717 
320 4 1 19.480 31.229 47.307 
321 4 1 18.766 32.532  3.129 
322 4 1 18.959 34.189  5.045 
323 4 1 18.631 36.425  5.881 
324 4 1 17.957 38.951  5.830 
325 4 1 17.168 41.387  5.594 
326 4 1 17.046 43.735  5.956 
327 4 1 17.337 45.858  7.269 
328 4 1 18.593 46.023  9.475 
329 4 1 18.843  4.516 11.113 
330 4 1 18.974  6.488 12.671 
331 4 1 19.078  8.658 14.019 
332 4 1 19.013 10.635 15.703 
333 4 1 18.728 12.520 17.379 
334 4 1 18.191 14.568 18.761 
335 4 1 17.205 16.779 19.065 
336 4 1 17.949 18.856 17.758 
337 4 1 18.510 21.135 17.737 
338 4 1 18.917 23.481 18.544 
339 4 1 19.145 25.788 19.649 
340 4 1 20.100 27.833 19.858 
341 4 1 20.684 30.148 19.900 
342 4 1 20.299 32.705 20.227 
343 4 1 19.896 35.014 19.562 
344 4 1 19.526 35.149 16.959 
345 4 1 19.970 34.453 14.878 
346 4 1 20.511 32.817 13.017 
347 4 1 20.820 31.460 10.820 
348 4 1 21.368 30.406  8.582 
349 4 1 21.780 29.448  6.221 
350 4 1 22.321 29.627  4.093 
351 4 1 23.962 28.402  2.966 
352 4 1 25.435 26.670  2.351 
353 4 1 27.470 25.190  2.471 
354 4 1 29.466 24.168  1.802 
355 4 1 31.389 23.361 46.471 
356 4 1 33.475 22.429 45.342 
357 4 1 33.647 20.629 43.426 
358 4 1 33.830 18.723 41.733 
359 4 1 33.834 16.698 40.093 
360 4 1 33.604 14.886 38.320 
361 4 1 33.537 13.040 36.592 
362 4 1 33.887 11.205 34.925 
363 5 1 27.686  3.705 11.839 
364 5 1 26.034  5.712 11.518 
365 5 1 24.383  7.636 11.461 
366 5 1 22.506  9.524 11.290 
367 5 1 20.459 11.069 10.948 
368 5 1 18.172 12.309 10.779 
369 5 1 15.815 13.146 10.653 
370 5 1 13.491 14.294 10.915 
371 5 1 11.376 14.588 11.922 
372 5 1  9.396 14.132 13.450 
373 5 1  9.038 12.910 15.713 
374 5 1  8.546 11.824 17.900 
375 5 1  6.080 11.691 18.442 
376 5 1  3.709 11.672 18.055 
377 5 1  1.454 11.304 16.891 
378 5 1 -0.869 10.882 15.918 
379 5 1 -2.089 12.194 14.132 
380 5 1 -4.575 12.766 14.236 
381 5 1 -6.907 13.577 14.494 
382 5 1 52.791 13.895 15.505 
383 5 1 51.329 14.558 16.996 
384 5 1 49.658 15.932 15.616 
385 5 1 49.931 18.309 14.576 
386 5 1 50.452 19.429 12.635 
387 5 1 51.742 20.227 10.905 
388 5 1 53.813 21.291  9.812 
389 5 1 56.088 21.824  8.766 
390 5 1 -3.243 22.190  8.119 
391 5 1 -1.494 23.414  7.412 
392 5 1 -0.646 25.644  6.365 
393 5 1  0.421 27.945  5.414 
394 5 1  1.376 30.002  4.115 
395 5 1  2.290 31.763  2.571 
396 5 1  3.354 33.430 47.071 
397 5 1  4.355 34.219 45.199 
398 5 1  5.119 34.093 42.734 
399 5 1  6.166 33.476 40.520 
400 5 1  5.666 34.123 38.103 
401 5 1  5.285 32.399 36.236 
402 5 1  7.190 31.274 35.489 
403 5 1  9.233 29.754 36.098 
404 5 1 11.257 28.343 36.605 
405 5 1 13.288 26.835 36.702 
406 5 1 14.944 24.908 36.492 
407 5 1 16.086 22.583 36.581 
408 5 1 15.629 20.887 38.519 
409 5 1 14.678 20.220 40.613 
410 5 1 13.432 20.064 42.816 
411 5 1 12.508 19.490 45.249 
412 5 1 10.997 20.643 47.056 
413 5 1  9.036 21.680  1.658 
414 5 1  6.604 22.478  1.456 
415 5 1  4.804 21.028 46.530 
416 5 1  3.393 19.638 44.957 
417 5 1  1.503 18.642 43.638 
418 5 1 -0.779 17.669 43.035 
419 5 1 -3.141 16.694 42.374 
420 5 1 -5.587 15.887 41.974 
421 5 1 53.898 14.911 41.732 
422 5 1 51.521 14.083 41.265 
423 5 1 49.642 15.614 41.779 
424 5 1 47.275 16.088 40.816 
425 5 1 44.984 16.500 39.798 
426 5 1 42.818 16.826 38.575 
427 5 1 41.191 18.817 38.874 
428 5 1 39.564 19.968 40.076 
429 5 1 38.825 21.005 42.000 
430 5 1 39.010 22.377 44.184 
431 5 1 39.279 23.833 46.256 
432 5 1 41.100 23.468  1.984 
433 5 1 42.129 22.098  3.462 
434 5 1 42.748 20.012  4.758 
435 5 1 41.809 17.629  4.628 
436 5 1 40.952 15.827  3.537 
437 5 1 40.008 14.230  1.669 
438 5 1 38.947 12.584 46.068 
439 5 1 37.731 11.017 44.424 
440 5 1 36.590  9.690 42.587 
441 6 1  3.848 23.877 41.661 
442 6 1  3.520 21.600 40.457 
443 6 1  4.257 20.035 38.777 
444 6 1  5.869 18.912 37.047 
445 6 1  7.563 17.647 35.446 
446 6 1  7.310 17.191 32.943 
447 6 1  7.141 16.875 30.363 
448 6 1  6.820 16.471 27.824 
449 6 1  6.305 16.296 25.321 
450 6 1  5.558 15.992 22.849 
451 6 1  6.758 16.101 20.598 
452 6 1  8.527 16.299 19.214 
453 6 1 11.003 16.053 18.371 
454 6 1 12.764 16.845 19.738 
455 6 1 11.642 18.737 20.590 
456 6 1  9.723 19.732 21.990 
457 6 1  7.784 20.444 23.541 
458 6 1  5.854 21.098 25.119 
459 6 1  4.041 22.255 26.236 
460 6 1  1.889 23.704 26.444 
461 6 1 -0.232 25.137 26.549 
462 6 1 -2.497 24.832 25.494 
463 6 1 -4.574 25.014 23.889 
464 6 1 -6.884 25.191 22.737 
465 6 1 52.563 25.198 21.911 
466 6 1 50.155 25.186 20.971 
467 6 1 47.739 24.498 20.562 
468 6 1 45.230 24.158 20.325 
469 6 1 43.384 23.615 19.197 
470 6 1 42.191 22.659 17.098 
471 6 1 40.848 21.648 15.169 
472 6 1 39.530 20.687 13.264 
473 6 1 38.062 19.657 11.446 
474 6 1 36.532 18.720  9.676 
475 6 1 34.569 18.136  8.655 
476 6 1 32.163 17.489  8.327 
477 6 1 30.509 17.492 10.249 
478 6 1 29.463 15.456 11.431 
479 6 1 27.114 14.320 11.478 
480 6 1 25.050 14.499 10.622 
481 6 1 23.053 15.535  9.409 
482 6 1 22.666 17.775  8.315 
483 6 1 22.087 20.379  7.933 
484 6 1 19.638 21.376  7.933 
485 6 1 17.329 22.516  7.859 
486 6 1 15.125 23.947  7.524 
487 6 1 12.894 25.167  7.091 
488 6 1 11.231 25.964  5.752 
489 6 1 10.522 26.297  3.229 
490 6 1  9.882 26.456  0.732 
491 6 1  8.743 26.137 44.725 
492 6 1  8.312 23.659 43.844 
493 6 1  8.036 21.455 42.444 
494 6 1  8.769 19.330 41.616 
495 6 1 10.043 17.116 41.818 
496 6 1 10.948 15.169 41.092 
497 6 1 11.647 13.460 39.317 
498 6 1 12.339 11.260 38.513 
499 6 1 13.330  9.328 37.764 
500 6 1 14.806  7.787 36.884 
501 6 1 16.580  6.574 37.938 
502 6 1 17.782  7.656 39.927 
503 6 1 19.985  7.010 41.263 
504 6 1 21.916  6.416 42.750 
505 6 1 23.925  5.657 44.087 
506 6 1 25.967  4.696 45.139 
507 6 1 28.091  3.769 44.917 
508 6 1 29.769 45.698 43.788 
509 6 1 30.050 45.376 41.312 
510 6 1 30.573 45.049 38.721 
511 6 1 31.359 45.165 36.211 
512 6 1 33.229 43.822 35.013 
513 6 1 35.155 42.599 33.805 
514 6 1 36.914 41.364 32.375 
515 6 1 38.631 42.206 30.508 
516 6 1 39.667 43.548 28.477 
517 6 1 40.801 45.098 26.624 
518 6 1 42.868 44.087 25.835 
519 7 1 -1.455  8.171 31.121 
520 7 1 -3.755  8.288 31.691 
521 7 1 -5.668  7.961 33.003 
522 7 1 -5.227  6.841 35.333 
523 7 1 -3.576  5.111 35.466 
524 7 1 -1.377  4.007 34.859 
525 7 1  0.032  4.202 32.743 
526 7 1  2.449  3.851 32.300 
527 7 1  4.947  3.291 31.686 
528 7 1  5.853 44.601 30.590 
529 7 1  6.454 42.613 29.254 
530 7 1  7.299 40.549 27.951 
531 7 1  7.757 38.516 26.473 
532 7 1  7.986 36.304 25.181 
533 7 1  9.662 35.709 23.415 
534 7 1 11.308 35.092 21.572 
535 7 1 12.812 33.965 19.640 
536 7 1 14.668 32.995 18.270 
537 7 1 16.256 31.723 17.217 
538 7 1 17.262 29.908 15.690 
539 7 1 19.068 28.649 15.235 
540 7 1 21.493 28.036 15.130 
541 7 1 23.425 26.899 14.380 
542 7 1 24.821 25.011 13.836 
543 7 1 26.880 24.003 13.668 
544 7 1 29.233 23.723 12.776 
545 7 1 31.380 23.507 11.367 
546 7 1 33.401 23.468  9.909 
547 7 1 35.472 23.315  8.433 
548 7 1 37.126 22.367  7.062 
549 7 1 37.639 20.857  5.386 
550 7 1 37.226 19.498  3.347 
551 7 1 36.943 18.355  1.100 
552 7 1 37.070 16.690 45.519 
553 7 1 35.071 15.602 45.150 
554 7 1 32.510 15.173 45.040 
555 7 1 30.706 16.858 45.380 
556 7 1 29.012 18.609 46.170 
557 7 1 27.445 20.404 46.172 
558 7 1 25.664 22.158 45.731 
559 7 1 23.673 23.806 45.719 
560 7 1 21.589 25.309 45.839 
561 7 1 19.396 26.640 45.643 
562 7 1 17.212 27.982 45.467 
563 7 1 15.103 29.408 45.517 
564 7 1 13.836 31.198 45.166 
565 7 1 14.573 33.310 43.906 
566 7 1 16.609 32.753 43.256 
567 7 1 18.462 31.222 42.325 
568 7 1 20.436 29.925 41.321 
569 7 1 22.388 28.466 40.548 
570 7 1 24.667 27.615 39.673 
571 7 1 24.982 26.338 37.482 
572 7 1 25.436 24.551 35.916 
573 7 1 27.197 22.639 35.890 
574 7 1 26.749 20.183 35.098 
575 7 1 26.071 17.796 34.451 
576 7 1 25.227 15.458 33.658 
577 7 1 24.099 13.329 32.636 
578 7 1 25.235 11.080 31.754 
579 7 1 23.939  8.984 31.033 
580 7 1 22.520  6.801 30.854 
581 7 1 23.192  4.419 30.406 
582 7 1 23.148  2.412 31.916 
583 7 1 22.577 43.779 33.241 
584 7 1 22.576 41.368 34.394 
585 7 1 23.082 39.931 36.216 
586 7 1 23.377 39.322 38.682 
587 7 1 23.635 39.158 41.265 
588 7 1 24.174 39.464 43.754 
589 7 1 24.751 39.732 46.199 
590 7 1 25.459 39.679  2.573 
591 7 1 25.920 39.246  5.044 
592 7 1 26.014 40.658  7.230 
593 7 1 26.994 39.877  9.517 
594 7 1 27.954 39.015 11.799 
595 7 1 26.645 39.367 14.098 
596 7 1 27.385 38.565 16.426 
597 8 1  5.402 25.367  5.319 
598 8 1  3.281 24.043  4.923 
599 8 1  1.430 22.349  4.402 
600 8 1 -0.423 20.538  3.801 
601 8 1 -1.881 18.665  2.893 
602 8 1 -3.159 16.664  2.037 
603 8 1 -4.658 14.827  1.102 
604 8 1 -5.860 12.897 45.966 
605 8 1 54.607 10.940 44.758 
606 8 1 53.616  8.885 43.442 
607 8 1 53.398  8.656 40.975 
608 8 1 53.281  8.293 38.450 
609 8 1 51.790  6.645 37.108 
610 8 1 49.553  7.373 36.471 
611 8 1 47.859  6.267 38.115 
612 8 1 47.066  6.296 40.709 
613 8 1 46.097  5.900 43.095 
614 8 1 45.917  5.757 45.455 
615 8 1 46.723  6.180 47.899 
616 8 1 46.389  8.505  3.026 
617 8 1 48.062 10.032  4.377 
618 8 1 49.040 12.323  5.187 
619 8 1 49.643 14.739  5.140 
620 8 1 50.018 17.245  4.475 
621 8 1 48.334 18.387  3.474 
622 8 1 46.731 18.474  1.470 
623 8 1 46.442 16.674 45.775 
624 8 1 45.444 14.668 44.403 
625 8 1 44.463 12.587 43.185 
626 8 1 42.056 12.356 42.248 
627 8 1 41.004 10.277 41.355 
628 8 1 40.697  7.993 40.795 
629 8 1 41.247  5.504 40.565 
630 8 1 41.645  3.104 39.726 
631 8 1 43.815  2.139 38.566 
632 8 1 45.221 45.170 36.846 
633 8 1 46.882 45.582 35.300 
634 8 1 49.089 46.586 34.386 
635 8 1 51.435  3.602 33.495 
636 8 1 53.054  4.134 31.802 
637 8 1 54.596  4.286 29.982 
638 8 1 -4.954  4.730 28.857 
639 8 1 -2.883  5.277 27.543 
640 8 1 -2.724  7.522 26.883 
641 8 1 -3.596  9.618 26.796 
642 8 1 -3.145 11.643 27.854 
643 8 1 -1.904 13.673 28.862 
644 8 1  0.556 13.638 29.807 
645 8 1  1.694 15.771 30.559 
646 8 1  2.586 17.995 31.517 
647 8 1  2.475 20.328 31.760 
648 8 1  0.244 21.296 32.651 
649 8 1 -2.077 21.318 32.985 
650 8 1 -4.465 20.355 32.834 
651 8 1 55.060 19.098 32.965 
652 8 1 52.894 17.666 33.374 
653 8 1 52.317 15.389 32.464 
654 8 1 52.875 13.696 30.951 
655 8 1 55.137 13.186 31.693 
656 8 1 -4.308 13.171 32.778 
657 8 1 -2.079 13.035 33.718 
658 8 1 -0.278 12.008 34.702 
659 8 1 -0.593  9.461 35.145 
660 8 1 -1.554  8.644 37.492 
661 8 1 -2.347  9.040 39.637 
662 8 1 -3.312 10.731 41.333 
663 8 1 -1.984 12.123 42.906 
664 8 1 -0.657 13.427 44.788 
665 8 1  0.539 14.595 46.712 
666 8 1  1.927 16.183  2.091 
667 8 1  3.593 17.640  3.309 
668 8 1  5.644 18.686  4.388 
669 8 1  8.028 19.394  5.079 
670 8 1 10.513 19.831  5.509 
671 8 1 13.049 20.033  5.787 
672 8 1 14.949 19.193  4.336 
673 8 1 16.050 20.637  2.952 
674 8 1 16.406 22.680  1.464 
675 9 1 31.152 29.504 25.456 
676 9 1 31.423 31.347 23.614 
677 9 1 33.571 32.205 22.444 
678 9 1 35.848 33.021 21.785 
679 9 1 38.125 33.932 21.145 
680 9 1 40.310 35.044 20.440 
681 9 1 42.681 35.984 19.918 
682 9 1 43.598 38.374 20.094 
683 9 1 44.245 40.785 20.580 
684 9 1 44.531 43.340 21.058 
685 9 1 44.605 45.666 22.000 
686 9 1 44.482  4.284 23.411 
687 9 1 43.290  5.690 24.781 
688 9 1 40.988  6.482 25.737 
689 9 1 39.477  5.800 27.592 
690 9 1 38.816  5.205 29.638 
691 9 1 39.553  4.362 31.975 
692 9 1 39.522  3.839 34.334 
693 9 1 39.491 45.197 35.334 
694 9 1 39.823 42.933 36.041 
695 9 1 39.481 40.371 35.872 
696 9 1 39.654 38.966 33.697 
697 9 1 40.182 36.427 33.276 
698 9 1 41.122 34.124 32.766 
699 9 1 42.848 32.798 31.870 
700 9 1 44.754 31.529 31.194 
701 9 1 45.872 29.260 30.551 
702 9 1 44.929 26.820 30.727 
703 9 1 44.212 24.296 31.042 
704 9 1 43.982 21.750 31.417 
705 9 1 44.698 19.547 32.230 
706 9 1 45.905 18.112 33.927 
707 9 1 47.387 16.791 35.554 
708 9 1 49.057 15.408 36.904 
709 9 1 51.559 16.207 37.199 
710 9 1 53.944 17.235 37.360 
711 9 1 56.036 18.721 37.232 
712 9 1 -3.848 19.393 38.716 
713 9 1 -1.498 20.148 37.930 
714 9 1  0.456 19.495 36.890 
715 9 1  2.094 17.711 36.017 
716 9 1  3.032 15.434 35.201 
717 9 1  3.830 13.325 33.930 
718 9 1  3.953 10.859 34.633 
719 9 1  4.317  8.262 35.108 
720 9 1  4.527  5.786 35.648 
721 9 1  5.087  3.240 36.174 
722 9 1  5.651 44.325 36.805 
723 9 1  7.813 43.166 36.912 
724 9 1 10.130 42.933 38.031 
725 9 1 10.952 42.676 40.570 
726 9 1 12.154 42.956 42.863 
727 9 1 13.656 44.388 44.347 
728 9 1 15.125 45.772 45.970 
729 9 1 16.151  3.879 47.630 
730 9 1 18.608  3.978  2.241 
731 9 1 20.969  3.804  2.984 
732 9 1 23.181  3.126  3.177 
733 9 1 25.126 45.052  2.504 
734 9 1 27.081 43.511  1.963 
735 9 1 28.786 42.162 46.579 
736 9 1 30.338 41.091 44.902 
737 9 1 32.004 40.104 43.329 
738 9 1 33.804 39.732 42.011 
739 9 1 35.876 40.528 40.795 
740 9 1 36.050 42.172 38.775 
741 9 1 35.978 44.813 38.467 
742 9 1 35.419  3.760 38.042 
743 9 1 36.625  5.803 36.906 
744 9 1 37.948  7.690 35.729 
745 9 1 39.434  9.412 34.536 
746 9 1 39.345 10.124 32.090 
747 9 1 38.329 10.106 29.933 
748 9 1 37.497  9.877 27.764 
749 9 1 37.441 10.420 25.307 
750 9 1 35.882 12.131 24.088 
751 9 1 33.832 13.291 23.558 
752 9 1 31.280 13.793 23.548 
753 10 1 -1.735 18.188 27.565 
754 10 1 -3.821 19.546 26.797 
755 10 1 -6.298 19.299 27.650 
756 10 1 52.988 19.415 28.403 
757 10 1 50.674 20.163 29.252 
758 10 1 48.616 19.058 28.969 
759 10 1 47.651 16.940 28.754 
760 10 1 49.405 15.072 28.787 
761 10 1 51.508 15.002 27.327 
762 10 1 53.813 15.101 26.174 
763 10 1 -5.815 15.383 24.841 
764 10 1 -4.844 13.390 23.465 
765 10 1 -3.481 11.457 22.380 
766 10 1 -3.990 10.825 20.143 
767 10 1 -5.214  9.788 18.104 
768 10 1 55.075  9.175 16.134 
769 10 1 53.433  8.816 14.141 
770 10 1 51.701  8.766 12.330 
771 10 1 49.759  9.061 10.558 
772 10 1 47.866  9.131  8.854 
773 10 1 45.626  7.772  9.213 
774 10 1 43.525  6.259  9.482 
775 10 1 41.662  5.788 10.584 
776 10 1 39.932  7.690 10.172 
777 10 1 39.283  9.690  9.513 
778 10 1 39.639 12.135  9.247 
779 10 1 40.196 14.606  8.846 
780 10 1 41.173 16.399 10.427 
781 10 1 41.615 18.769  9.584 
782 10 1 41.977 21.256  8.966 
783 10 1 41.280 23.422  8.477 
784 10 1 40.727 25.218 10.187 
785 10 1 40.945 27.100 11.659 
786 10 1 42.255 29.176 12.478 
787 10 1 41.984 31.250 11.053 
788 10 1 43.654 32.296  9.423 
789 10 1 45.481 33.248  7.820 
790 10 1 47.326 34.149  6.322 
791 10 1 47.695 36.353  5.058 
792 10 1 47.223 38.462  4.114 
793 10 1 46.063 40.505  3.210 
794 10 1 44.932 42.352  1.878 
795 10 1 43.701 44.135 46.584 
796 10 1 42.439 45.713 44.966 
797 10 1 39.800 45.811 44.735 
798 10 1 37.326 46.224 44.861 
799 10 1 34.778  2.909 45.066 
800 10 1 33.257  4.745 44.018 
801 10 1 31.794  6.792 43.472 
802 10 1 29.644  6.731 41.893 
803 10 1 27.746  6.231 40.346 
804 10 1 26.316  4.791 39.344 
805 10 1 25.976  2.810 38.009 
806 10 1 26.310 44.508 36.114 
807 10 1 27.429 45.197 33.909 
808 10 1 28.747 45.855 31.802 
809 10 1 29.732  2.568 29.515 
810 10 1 31.075  2.741 27.339 
811 10 1 31.677 46.447 24.961 
812 10 1 31.414  3.330 22.369 
813 10 1 31.627  5.525 21.114 
814 10 1 31.868  7.634 19.785 
815 10 1 31.630  9.937 19.314 
816 10 1 30.549 12.253 19.600 
817 10 1 29.318 14.454 20.161 
818 10 1 28.291 16.895 20.224 
819 10 1 27.170 17.573 18.258 
820 10 1 27.070 18.694 15.951 
821 10 1 29.123 19.702 14.725 
822 10 1 31.380 19.800 14.266 
823 10 1 33.494 18.488 14.253 
824 10 1 35.431 16.722 14.258 
825 10 1 37.076 14.805 13.850 
826 10 1 38.966 13.152 13.369 
827 10 1 39.588 10.859 14.242 
828 10 1 40.536  8.525 14.789 
829 10 1 41.636  6.162 15.074 
830 10 1 42.770  3.865 15.473 
831 11 1 28.488 15.247 38.562 
832 11 1 29.259 17.564 39.242 
833 11 1 30.143 19.901 39.904 
834 11 1 29.914 22.104 40.764 
835 11 1 28.873 24.206 41.831 
836 11 1 27.696 26.338 42.874 
837 11 1 26.792 28.413 44.228 
838 11 1 26.048 30.332 45.663 
839 11 1 26.145 32.424 46.564 
840 11 1 27.375 34.596 47.043 
841 11 1 27.916 36.743 45.673 
842 11 1 29.351 36.610 43.901 
843 11 1 30.211 35.840 41.544 
844 11 1 30.947 34.559 39.335 
845 11 1 31.741 33.378 37.099 
846 11 1 32.674 32.398 34.940 
847 11 1 34.200 31.600 33.349 
848 11 1 36.396 31.351 31.984 
849 11 1 38.446 30.876 30.597 
850 11 1 40.483 30.510 29.047 
851 11 1 42.364 29.802 27.408 
852 11 1 44.074 31.416 26.352 
853 11 1 45.761 32.983 25.330 
854 11 1 47.713 34.512 24.690 
855 11 1 49.530 35.981 23.708 
856 11 1 50.022 37.864 22.527 
857 11 1 49.419 40.146 21.622 
858 11 1 49.672 40.202 19.280 
859 11 1 50.739 39.643 17.046 
860 11 1 51.349 39.144 14.610 
861 11 1 51.664 38.118 12.329 
862 11 1 51.030 36.983 10.331 
863 11 1 50.619 35.795  8.334 
864 11 1 51.744 34.124  6.641 
865 11 1 53.753 34.446  5.053 
866 11 1 55.747 34.730  3.541 
867 11 1 -4.117 35.285  1.900 
868 11 1 -2.288 36.062 46.256 
869 11 1 -0.710 36.752 44.263 
870 11 1  1.490 37.663 44.689 
871 11 1  1.704 40.094 43.765 
872 11 1  2.359 42.287 42.659 
873 11 1  3.163 44.385 41.453 
874 11 1  5.266 45.825 41.845 
875 11 1  7.432  3.158 41.627 
876 11 1  8.216  3.724 39.296 
877 11 1  9.606  4.175 37.073 
878 11 1 10.199  4.720 34.770 
879 11 1  9.594  2.924 32.984 
880 11 1 10.476 45.697 30.971 
881 11 1 12.523 45.490 29.457 
882 11 1 14.298 45.162 27.708 
883 11 1 14.842  3.975 26.996 
884 11 1 14.532  6.493 26.751 
885 11 1 13.077  8.627 27.172 
886 11 1 11.552 10.719 27.298 
887 11 1 10.195 12.843 27.439 
888 11 1 10.775 14.762 25.831 
889 11 1 12.065 16.687 24.608 
890 11 1 13.035 18.909 25.463 
891 11 1 12.618 21.039 26.251 
892 11 1 11.274 22.959 26.930 
893 11 1  9.719 25.008 27.350 
894 11 1  7.551 25.741 25.981 
895 11 1  5.405 26.630 24.901 
896 11 1  3.935 26.802 23.053 
897 11 1  3.912 24.588 21.619 
898 11 1  3.588 22.409 20.452 
899 11 1  2.825 20.149 19.798 
900 11 1  0.307 19.890 20.275 
901 11 1 -2.024 19.711 21.240 
902 11 1 -4.443 19.460 22.080 
903 11 1 55.024 19.464 22.976 
904 11 1 52.607 19.535 24.017 
905 11 1 50.094 19.692 24.542 
906 11 1 47.683 20.219 24.916 
907 11 1 45.127 20.743 25.105 
908 11 1 43.084 19.898 26.346 
909 12 1 33.040 33.664 45.880 
910 12 1 33.905 33.467 43.520 
911 12 1 34.481 32.690 41.386 
912 12 1 34.982 30.955 39.626 
913 12 1 35.371 29.148 37.908 
914 12 1 35.648 27.327 36.199 
915 12 1 36.067 25.282 34.655 
916 12 1 36.183 23.185 33.173 
917 12 1 35.859 22.067 31.208 
918 12 1 35.542 20.730 29.262 
919 12 1 33.582 19.361 28.711 
920 12 1 31.464 18.313 27.469 
921 12 1 29.760 19.846 26.138 
922 12 1 30.491 19.509 23.896 
923 12 1 31.892 19.510 21.827 
924 12 1 33.185 18.600 19.957 
925 12 1 34.194 16.792 18.468 
926 12 1 35.773 14.707 18.789 
927 12 1 37.338 12.600 18.730 
928 12 1 39.009 10.701 18.902 
929 12 1 40.898  9.020 19.343 
930 12 1 42.972  7.596 19.383 
931 12 1 45.141  6.176 19.157 
932 12 1 47.148  4.552 19.345 
933 12 1 49.022  2.904 20.062 
934 12 1 50.490 44.775 18.776 
935 12 1 51.942 43.937 17.194 
936 12 1 53.806 44.324 15.492 
937 12 1 54.168 46.347 13.963 
938 12 1 54.192  4.644 12.259 
939 12 1 55.532  4.704  9.998 
940 12 1 -6.717  6.322  8.348 
941 12 1 53.254  7.619  7.103 
942 12 1 51.195  6.246  6.283 
943 12 1 49.321  4.813  6.344 
944 12 1 47.437  3.505  7.355 
945 12 1 45.617 45.823  8.752 
946 12 1 43.406 44.828  9.766 
947 12 1 41.211 43.725 10.305 
948 12 1 39.693 41.993 10.657 
949 12 1 39.221 39.497 10.563 
950 12 1 38.890 38.333  8.346 
951 12 1 38.375 37.108  6.241 
952 12 1 40.200 35.561  5.088 
953 12 1 42.052 34.412  3.755 
954 12 1 43.805 33.120  2.296 
955 12 1 45.334 31.451  1.080 
956 12 1 46.486 32.110 44.961 
957 12 1 45.913 31.313 42.588 
958 12 1 44.943 31.079 40.135 
959 12 1 44.009 30.880 37.695 
960 12 1 44.301 28.775 36.205 
961 12 1 44.771 26.580 35.611 
962 12 1 44.958 24.275 36.802 
963 12 1 45.227 22.009 37.948 
964 12 1 46.245 20.765 39.741 
965 12 1 47.692 20.432 41.855 
966 12 1 49.069 20.187 44.077 
967 12 1 51.000 21.742 45.000 
968 12 1 52.650 23.253 46.144 
969 12 1 54.334 24.730 47.212 
970 12 1 53.804 26.768  2.677 
971 12 1 52.512 28.327  3.726 
972 12 1 50.291 29.468  4.424 
973 12 1 48.139 28.236  4.939 
974 12 1 46.203 26.761  5.599 
975 12 1 43.588 27.061  5.778 
976 12 1 41.473 28.028  5.981 
977 12 1 39.358 28.827  6.550 
978 12 1 36.877 28.172  6.610 
979 12 1 34.386 27.411  6.568 
980 12 1 32.062 26.495  6.136 
981 12 1 29.639 25.914  6.560 
982 12 1 27.189 25.390  7.333 
983 12 1 24.765 25.186  8.357 
984 12 1 22.321 25.384  8.849 
985 12 1 20.074 26.061  9.729 
986 12 1 18.103 27.356 10.685 