LAMMPS data file generated by aa2cg.

2000 atoms
1 atom types
1975 bonds
1 bond types
1950 angles
1 angle types
1925 dihedrals
1 dihedral types

 0.000 44.256 xlo xhi
 0.000 49.269 ylo yhi
 0.000 56.642 zlo zhi

Masses

1 24.022

Atoms # molecular

1 1 1 42.654 43.499  6.573 
2 1 1  8.118  0.622  0.572 
3 2 1 23.563  6.360 24.803 
4 2 1  9.333 17.742 -1.900 
5 3 1 23.187 38.630 14.598 
6 3 1  8.072 42.281 51.212 
7 4 1 37.028  6.166 20.707 
8 4 1 16.012  6.480 13.049 
9 5 1 39.589 46.714 51.670 
10 5 1 17.407 26.636 46.195 
11 6 1 34.427 27.565 41.838 
12 6 1  8.881 19.299 15.340 
13 7 1 13.334 37.318 17.397 
14 7 1 26.072  1.774 26.355 
15 8 1 15.842 24.291 41.458 
16 8 1 30.692 26.645 44.437 
17 9 1 28.286 35.468 29.380 
18 9 1  9.721 31.373 34.645 
19 10 1 20.200 16.319 51.896 
20 10 1 44.581 13.727 16.567 
21 11 1 33.060 11.714 52.122 
22 11 1 35.851 45.100 -1.159 
23 12 1 16.270 36.784 -0.862 
24 12 1 35.403 -0.672 34.543 
25 13 1 28.685 39.144 25.415 
26 13 1 45.024  1.916  0.153 
27 14 1 40.321 12.832 40.220 
28 14 1 40.524 18.905 26.546 
29 15 1 39.399 31.678  2.627 
30 15 1 15.442 -0.108 48.806 
31 16 1 11.028 35.102 13.383 
32 16 1 34.164 28.417 37.317 
33 17 1 27.738 21.377 49.249 
34 17 1 22.491  8.299 46.370 
35 18 1 14.234  1.419 24.074 
36 18 1 13.930 24.451 35.307 
37 19 1 39.957 25.078 28.329 
38 19 1 14.805  4.811 47.602 
39 20 1 28.047 44.460 20.497 
40 20 1 25.590 16.738 49.432 
41 21 1  3.820  9.663 -0.655 
42 21 1  6.623 30.030 40.544 
43 22 1 30.506 31.428 29.014 
44 22 1 16.520 28.903  4.945 
45 23 1 29.569 39.271  6.734 
46 23 1 13.380 34.581  5.464 
47 24 1 39.009 22.941 24.301 
48 24 1 19.182 21.835 -3.869 
49 25 1 24.578 12.248 33.751 
50 25 1 24.344 47.583 43.311 
51 1 1 42.187 44.319  4.246 
52 1 1 41.523 45.417  2.037 
53 1 1 40.750 46.781 -0.033 
54 1 1 42.132 48.393 -1.375 
55 1 1 42.589  0.194 -3.389 
56 1 1 42.576  0.420 50.773 
57 1 1 42.096  0.490 48.280 
58 1 1 41.681  0.498 45.733 
59 1 1 41.656 47.532 44.331 
60 1 1 42.008 45.436 43.003 
61 1 1 40.693 44.219 41.187 
62 1 1 41.367 42.645 39.265 
63 1 1 42.221 40.813 38.230 
64 1 1 43.852 38.802 38.207 
65 1 1 45.452 36.814 37.901 
66 1 1 46.823 34.791 36.843 
67 1 1  4.721 33.455 37.622 
68 1 1  5.059 31.776 35.906 
69 1 1  4.644 29.871 34.170 
70 1 1  4.303 28.021 32.373 
71 1 1  3.901 26.227 30.473 
72 1 1  3.816 23.890 29.331 
73 1 1  3.911 21.364 28.728 
74 1 1  4.578 18.921 28.506 
75 1 1  5.445 16.518 28.060 
76 1 1  6.271 14.991 26.646 
77 1 1  6.210 13.724 24.335 
78 1 1  6.140 12.807 22.010 
79 1 1  5.922 11.542 19.733 
80 1 1  5.799 10.307 17.394 
81 1 1  3.876 10.487 15.675 
82 1 1  2.214 10.628 13.693 
83 1 1 45.346 11.788 12.072 
84 1 1 44.634 13.902 10.763 
85 1 1 43.648 14.950  8.909 
86 1 1 42.656 15.243  6.641 
87 1 1 42.265 15.795  4.131 
88 1 1 41.949 16.651  1.677 
89 1 1 43.501 15.940 -0.347 
90 1 1 45.172 14.963 -1.928 
91 1 1  2.735 14.009 -3.547 
92 1 1  4.712 13.032 51.705 
93 1 1  5.264 10.698 51.981 
94 1 1  6.409  8.570 52.664 
95 1 1  7.740  8.282 50.753 
96 1 1  8.238  8.177 48.136 
97 1 1  8.886  7.667 45.665 
98 1 1 10.172  7.080 43.895 
99 1 1 10.358  4.657 42.989 
100 1 1 10.933  2.639 41.558 
101 1 1 11.839  0.920 42.846 
102 1 1 11.966 48.351 44.633 
103 1 1 12.134 46.685 46.563 
104 1 1 12.567 44.868 48.225 
105 1 1 13.842 43.330 49.916 
106 1 1 16.200 43.223 49.605 
107 1 1 18.690 43.874 49.528 
108 1 1 20.181 44.855 51.477 
109 1 1 20.194 47.331 52.099 
110 1 1 19.849  0.228 51.495 
111 1 1 19.286  2.135 49.892 
112 1 1 18.612  4.040 48.392 
113 1 1 18.641  5.846 46.463 
114 1 1 18.596  7.655 44.749 
115 1 1 18.885  9.637 43.183 
116 1 1 19.245 11.419 44.583 
117 1 1 18.549 12.739 46.677 
118 1 1 17.827 14.063 48.725 
119 1 1 15.539 15.105 49.209 
120 1 1 14.663 14.889 51.666 
121 1 1 13.722 14.551 -2.639 
122 1 1 12.785 14.217 -0.146 
123 1 1 11.774 12.949  1.595 
124 1 1 10.003 11.851  2.997 
125 1 1  8.762  9.631  2.652 
126 1 1  7.827  7.340  2.072 
127 1 1  7.043  4.894  2.017 
128 1 1  7.341  2.696  1.715 
129 2 1 22.186  5.375 26.489 
130 2 1 21.616  3.351 28.067 
131 2 1 19.917  1.580 27.615 
132 2 1 18.196 -0.398 27.758 
133 2 1 16.322 47.199 28.385 
134 2 1 14.495 45.939 29.553 
135 2 1 12.617 45.840 31.046 
136 2 1 10.768 47.201 32.133 
137 2 1  8.906 48.717 33.011 
138 2 1  7.684  1.049 31.756 
139 2 1  5.164  1.491 31.574 
140 2 1  2.603  1.732 31.525 
141 2 1 45.274 -0.198 30.872 
142 2 1 43.499 47.256 30.416 
143 2 1 41.568 45.518 30.207 
144 2 1 40.398 43.560 30.786 
145 2 1 40.303 41.132 31.625 
146 2 1 41.960 39.272 32.044 
147 2 1 44.013 38.636 32.844 
148 2 1 46.366 38.993 33.864 
149 2 1  4.328 39.429 35.300 
150 2 1  6.648 39.666 36.523 
151 2 1  8.342 39.407 38.199 
152 2 1  9.355 38.850 40.482 
153 2 1 10.043 37.702 42.712 
154 2 1  8.200 37.343 44.564 
155 2 1  7.820 38.618 46.804 
156 2 1  8.915 40.300 47.864 
157 2 1 11.377 40.061 47.249 
158 2 1 13.882 40.004 46.620 
159 2 1 16.457 40.216 46.132 
160 2 1 19.047 40.675 46.018 
161 2 1 21.568 41.244 46.069 
162 2 1 24.126 41.878 46.291 
163 2 1 26.543 42.494 46.914 
164 2 1 27.475 44.876 47.297 
165 2 1 28.329 47.321 47.328 
166 2 1 29.041  0.530 47.506 
167 2 1 29.968  2.980 47.390 
168 2 1 30.811  5.454 47.590 
169 2 1 32.991  6.402 48.689 
170 2 1 34.836  8.062 49.708 
171 2 1 37.232  8.311 48.876 
172 2 1 39.689  8.028 48.308 
173 2 1 41.635  7.145 47.304 
174 2 1 43.122  5.600 45.912 
175 2 1 42.087  4.404 44.277 
176 2 1 40.700  4.149 42.281 
177 2 1 39.395  3.002 40.806 
178 2 1 38.128  1.164 39.581 
179 2 1 38.618 47.838 39.707 
180 2 1 38.715 46.092 37.823 
181 2 1 38.408 44.223 36.156 
182 2 1 38.216 42.081 34.779 
183 2 1 35.897 41.816 34.208 
184 2 1 35.631 42.673 31.781 
185 2 1 35.513 45.203 31.173 
186 2 1 36.200 47.615 30.565 
187 2 1 38.221 48.247 29.064 
188 2 1 40.264 49.647 28.293 
189 2 1 42.199  1.981 28.686 
190 2 1 43.247  4.138 27.517 
191 2 1 45.724  4.807 27.946 
192 2 1  3.822  5.512 28.518 
193 2 1  6.050  4.946 28.886 
194 2 1  8.365  4.482 29.485 
195 2 1  9.594  6.258 30.835 
196 2 1 10.702  8.241 31.997 
197 2 1 11.556 10.311 33.165 
198 2 1 12.233 11.456 35.061 
199 2 1 12.397 11.887 37.539 
200 2 1 12.023 12.574 40.099 
201 2 1 10.153 11.792 41.729 
202 2 1  9.677 12.998 43.961 
203 2 1  9.495 13.833 46.361 
204 2 1  9.094 14.359 48.841 
205 2 1  9.603 15.326 50.916 
206 2 1  9.919 16.310 53.002 
207 3 1 22.212 37.062 13.171 
208 3 1 20.711 34.965 12.983 
209 3 1 18.845 33.213 13.268 
210 3 1 16.877 31.772 13.935 
211 3 1 14.799 30.366 14.581 
212 3 1 12.527 29.170 14.913 
213 3 1 10.178 29.227 15.192 
214 3 1  7.781 29.835 15.762 
215 3 1  7.045 31.520 14.337 
216 3 1  6.072 33.089 12.942 
217 3 1  4.628 34.766 14.187 
218 3 1  3.954 36.906 15.140 
219 3 1  3.386 39.214 14.028 
220 3 1  2.968 41.412 12.683 
221 3 1  1.714 42.631 11.250 
222 3 1 44.049 43.918 12.394 
223 3 1 42.191 45.328 13.419 
224 3 1 40.286 46.741 14.434 
225 3 1 39.450 48.483 15.500 
226 3 1 39.706  1.458 16.723 
227 3 1 39.674  3.955 16.113 
228 3 1 39.887  6.310 15.116 
229 3 1 40.265  8.597 13.976 
230 3 1 40.168 10.368 12.446 
231 3 1 39.317 11.753 10.789 
232 3 1 38.314 13.575  9.637 
233 3 1 38.004 15.346  7.808 
234 3 1 37.893 17.237  6.028 
235 3 1 37.794 19.042  4.197 
236 3 1 39.188 20.451  2.990 
237 3 1 41.269 20.999  1.679 
238 3 1 42.720 20.800 -0.186 
239 3 1 44.224 19.879 -1.974 
240 3 1 46.245 19.389 -3.400 
241 3 1  4.214 19.073 51.899 
242 3 1  6.368 18.706 50.501 
243 3 1  8.523 18.632 49.009 
244 3 1 10.800 18.131 47.715 
245 3 1 12.994 19.469 47.673 
246 3 1 15.066 20.778 48.140 
247 3 1 17.208 19.933 49.269 
248 3 1 19.428 19.625 47.923 
249 3 1 21.501 19.734 46.336 
250 3 1 23.364 20.271 44.621 
251 3 1 25.673 19.239 44.165 
252 3 1 26.281 18.505 42.037 
253 3 1 26.270 16.643 40.200 
254 3 1 27.820 14.522 39.954 
255 3 1 29.288 12.463 39.796 
256 3 1 30.570 10.294 39.669 
257 3 1 31.634  7.948 39.217 
258 3 1 33.256  6.254 39.374 
259 3 1 35.725  5.415 39.668 
260 3 1 37.717  5.614 37.994 
261 3 1 39.379  5.922 36.052 
262 3 1 40.944  7.772 35.217 
263 3 1 42.404  9.624 34.324 
264 3 1 43.955 11.315 33.226 
265 3 1 45.462 12.545 31.639 
266 3 1 46.673 13.481 29.645 
267 3 1  1.702 12.200 27.870 
268 3 1 44.463 10.437 27.100 
269 3 1 42.550  9.560 28.720 
270 3 1 41.044  8.627 30.563 
271 3 1 40.059  6.335 31.007 
272 3 1 38.962  4.108 31.968 
273 3 1 39.089  1.915 32.798 
274 3 1 40.243 -0.166 33.715 
275 3 1 41.631 47.066 34.436 
276 3 1 43.269 45.117 35.183 
277 3 1 45.115 43.371 35.832 
278 3 1 46.720 43.047 37.849 
279 3 1  4.214 42.492 39.620 
280 3 1  6.127 42.358 41.332 
281 3 1  7.309 42.686 43.408 
282 3 1  7.723 43.946 45.502 
283 3 1  8.021 44.450 47.755 
284 3 1  7.513 44.378 50.287 
285 4 1 37.599  3.688 21.364 
286 4 1 38.220  1.252 22.277 
287 4 1 38.105 -0.878 23.577 
288 4 1 37.882 46.108 24.924 
289 4 1 37.858 43.882 26.118 
290 4 1 37.260 41.640 27.360 
291 4 1 37.100 39.511 28.728 
292 4 1 36.315 38.157 30.416 
293 4 1 35.037 38.181 32.664 
294 4 1 33.481 37.849 34.790 
295 4 1 31.613 39.190 35.864 
296 4 1 29.708 40.404 37.002 
297 4 1 28.409 42.239 37.725 
298 4 1 27.888 44.580 38.533 
299 4 1 29.016 46.848 38.285 
300 4 1 30.045 49.206 38.434 
301 4 1 31.408  1.867 37.936 
302 4 1 32.979  3.352 36.458 
303 4 1 34.434  4.895 34.949 
304 4 1 34.897  6.971 34.294 
305 4 1 35.241  8.836 32.938 
306 4 1 34.557  8.092 30.506 
307 4 1 33.839  7.417 28.270 
308 4 1 33.402  6.900 25.836 
309 4 1 32.943  7.006 23.232 
310 4 1 32.423  7.375 20.750 
311 4 1 31.717  7.761 18.333 
312 4 1 31.427  7.958 15.685 
313 4 1 30.765  8.088 13.175 
314 4 1 29.364  9.534 11.481 
315 4 1 27.595 10.168  9.636 
316 4 1 25.903 10.662  7.671 
317 4 1 24.289 10.931  5.680 
318 4 1 22.858 10.481  3.636 
319 4 1 21.310  9.727  1.765 
320 4 1 19.847  8.949 -0.120 
321 4 1 17.962  8.233 -1.147 
322 4 1 15.997  8.063 -2.436 
323 4 1 14.888  6.733 52.460 
324 4 1 13.527  4.649 52.066 
325 4 1 11.725  3.415 52.649 
326 4 1 11.063  3.805 -1.548 
327 4 1 10.576  6.072 -1.071 
328 4 1 12.226  7.223  0.441 
329 4 1 13.762  8.779  1.936 
330 4 1 14.958 10.442  3.574 
331 4 1 16.121 11.884  5.360 
332 4 1 18.381 13.178  5.308 
333 4 1 19.483 13.909  7.254 
334 4 1 20.450 11.851  8.543 
335 4 1 21.738 10.147 10.041 
336 4 1 23.368 10.796 11.831 
337 4 1 24.777 11.160 13.883 
338 4 1 26.091  9.358 15.345 
339 4 1 27.292  9.651 17.547 
340 4 1 27.901  9.790 20.149 
341 4 1 28.687  9.973 22.573 
342 4 1 29.982 10.066 24.827 
343 4 1 31.374 11.068 26.538 
344 4 1 32.205 12.962 28.113 
345 4 1 34.182 12.959 29.257 
346 4 1 36.252 12.189 29.985 
347 4 1 37.867 11.983 27.884 
348 4 1 37.266 10.100 26.620 
349 4 1 36.216 10.773 24.346 
350 4 1 34.917 11.427 22.199 
351 4 1 33.729 11.791 20.036 
352 4 1 32.684 12.449 17.743 
353 4 1 31.916 12.517 15.207 
354 4 1 30.180 13.826 14.073 
355 4 1 29.535 13.615 11.528 
356 4 1 28.245 15.548 10.957 
357 4 1 25.698 15.483 11.396 
358 4 1 23.140 15.450 11.510 
359 4 1 20.788 14.938 12.479 
360 4 1 19.073 13.454 12.560 
361 4 1 17.937 11.187 12.787 
362 4 1 16.936  8.811 13.010 
363 5 1 37.151 47.519 51.929 
364 5 1 34.804 47.442 51.483 
365 5 1 32.417 46.606 51.214 
366 5 1 30.021 45.788 51.258 
367 5 1 27.652 45.603 51.684 
368 5 1 25.210 45.851 52.536 
369 5 1 25.053 45.916 -1.756 
370 5 1 26.163 43.991 -0.303 
371 5 1 27.631 44.509  1.743 
372 5 1 29.147 44.805  3.750 
373 5 1 29.770 45.004  6.006 
374 5 1 29.161 43.109  7.740 
375 5 1 26.778 42.495  8.646 
376 5 1 24.595 41.721  8.448 
377 5 1 22.530 40.419  7.725 
378 5 1 22.989 38.019  7.392 
379 5 1 23.538 35.614  8.022 
380 5 1 23.508 33.060  7.946 
381 5 1 22.788 30.630  7.855 
382 5 1 21.999 29.204  6.027 
383 5 1 21.590 28.958  3.825 
384 5 1 21.693 29.699  1.309 
385 5 1 21.718 30.508 -1.089 
386 5 1 21.472 31.691 -3.366 
387 5 1 21.017 34.160 -3.639 
388 5 1 21.056 36.457 -2.966 
389 5 1 23.098 37.924 -2.168 
390 5 1 25.258 39.008 -1.392 
391 5 1 27.452 39.812 -0.470 
392 5 1 29.684 40.595  0.444 
393 5 1 32.008 41.409  1.348 
394 5 1 33.907 40.039  1.167 
395 5 1 35.039 38.224  0.709 
396 5 1 36.107 35.937  1.382 
397 5 1 35.144 34.150  2.934 
398 5 1 34.160 32.498  4.663 
399 5 1 33.504 30.642  6.431 
400 5 1 35.252 29.142  7.717 
401 5 1 35.436 28.587 10.198 
402 5 1 35.617 28.155 12.847 
403 5 1 37.026 26.555 14.431 
404 5 1 38.229 25.111 16.196 
405 5 1 39.538 23.756 18.030 
406 5 1 40.946 24.641 19.965 
407 5 1 42.066 25.646 22.096 
408 5 1 43.322 26.648 24.211 
409 5 1 44.883 27.700 25.991 
410 5 1 46.314 29.407 26.801 
411 5 1  3.568 31.125 27.386 
412 5 1  5.691 31.846 28.366 
413 5 1  7.637 32.980 28.330 
414 5 1  9.560 34.326 28.299 
415 5 1 11.191 33.756 30.296 
416 5 1 12.766 33.174 32.218 
417 5 1 14.021 32.416 34.315 
418 5 1 14.441 30.977 36.036 
419 5 1 14.552 29.879 38.074 
420 5 1 15.264 29.750 40.460 
421 5 1 16.236 29.971 42.860 
422 5 1 17.665 32.020 43.775 
423 5 1 19.370 33.822 44.522 
424 5 1 21.043 35.794 44.775 
425 5 1 22.355 36.546 46.832 
426 5 1 23.830 36.226 48.445 
427 5 1 25.470 36.281 49.997 
428 5 1 26.154 35.945 52.122 
429 5 1 26.196 34.840 -2.223 
430 5 1 26.098 33.906  0.217 
431 5 1 26.152 33.433  2.764 
432 5 1 25.826 31.255  4.027 
433 5 1 25.831 28.951  4.189 
434 5 1 25.915 26.787  2.797 
435 5 1 24.199 25.959  1.085 
436 5 1 22.629 24.773 -0.561 
437 5 1 22.392 25.187 -2.937 
438 5 1 22.018 26.997 51.941 
439 5 1 20.291 27.055 50.021 
440 5 1 18.543 27.108 48.174 
441 6 1 33.389 29.646 41.642 
442 6 1 31.902 31.268 40.447 
443 6 1 30.342 32.864 39.120 
444 6 1 28.911 34.653 39.305 
445 6 1 27.865 36.622 40.384 
446 6 1 27.361 38.503 41.965 
447 6 1 27.338 40.642 42.734 
448 6 1 28.309 43.063 42.512 
449 6 1 29.669 45.314 42.606 
450 6 1 30.880 47.569 42.722 
451 6 1 31.340  0.507 43.006 
452 6 1 30.852  2.987 42.937 
453 6 1 30.435  5.466 43.246 
454 6 1 29.752  7.762 44.144 
455 6 1 27.628  9.167 43.520 
456 6 1 25.678 10.595 42.786 
457 6 1 23.833 11.309 41.607 
458 6 1 22.523 11.144 39.387 
459 6 1 21.142 10.016 37.516 
460 6 1 21.601  7.775 36.382 
461 6 1 22.200  5.505 35.330 
462 6 1 22.775  3.292 33.977 
463 6 1 21.667  1.085 33.688 
464 6 1 20.802 48.015 32.855 
465 6 1 20.041 45.902 31.767 
466 6 1 19.366 43.719 31.416 
467 6 1 17.036 43.373 32.493 
468 6 1 14.914 43.142 33.730 
469 6 1 12.751 42.768 35.074 
470 6 1 10.707 43.301 36.133 
471 6 1  8.640 44.581 36.687 
472 6 1  6.408 45.801 36.728 
473 6 1  4.271 47.048 36.595 
474 6 1  3.794 49.306 37.776 
475 6 1  3.720  2.420 36.783 
476 6 1  3.975  4.908 36.051 
477 6 1  5.221  6.449 34.952 
478 6 1  6.820  8.052 34.115 
479 6 1  7.519 10.019 35.656 
480 6 1  8.027 12.085 37.121 
481 6 1  6.719 14.316 37.703 
482 6 1  5.127 16.332 37.893 
483 6 1  3.336 18.096 37.967 
484 6 1 45.934 19.924 37.933 
485 6 1 43.889 21.033 37.535 
486 6 1 41.350 21.150 37.520 
487 6 1 38.898 21.818 37.531 
488 6 1 36.369 22.432 37.705 
489 6 1 33.907 23.041 38.255 
490 6 1 32.035 24.303 38.930 
491 6 1 30.532 26.325 38.967 
492 6 1 28.993 28.030 39.565 
493 6 1 26.928 29.207 40.615 
494 6 1 26.194 28.593 42.810 
495 6 1 27.031 28.036 45.248 
496 6 1 26.999 27.452 47.773 
497 6 1 27.249 26.101 49.891 
498 6 1 27.309 24.693 51.993 
499 6 1 27.389 23.056 -2.564 
500 6 1 28.534 23.646 -0.325 
501 6 1 29.737 24.014  1.932 
502 6 1 29.138 22.850  4.157 
503 6 1 28.126 21.658  6.148 
504 6 1 29.096 20.726  8.316 
505 6 1 29.973 19.790 10.528 
506 6 1 30.867 19.192 12.881 
507 6 1 32.308 18.545 14.972 
508 6 1 33.688 17.816 16.989 
509 6 1 35.024 16.881 19.004 
510 6 1 36.616 16.732 20.669 
511 6 1 38.912 17.429 21.666 
512 6 1 41.036 18.666 22.196 
513 6 1 43.255 19.963 22.720 
514 6 1 44.553 21.540 21.175 
515 6 1 46.254 22.876 19.549 
516 6 1  4.597 22.575 19.505 
517 6 1  6.708 22.116 18.281 
518 6 1  8.082 21.233 16.389 
519 7 1 14.056 36.034 19.155 
520 7 1 15.145 35.847 21.556 
521 7 1 17.134 37.385 22.272 
522 7 1 18.012 39.580 22.419 
523 7 1 18.942 41.735 21.449 
524 7 1 18.937 44.099 20.701 
525 7 1 18.466 46.313 21.367 
526 7 1 18.909 48.443 21.939 
527 7 1 21.147 49.492 22.535 
528 7 1 22.184  2.495 21.635 
529 7 1 22.298  4.629 20.871 
530 7 1 22.201  6.863 19.925 
531 7 1 22.773  9.158 18.996 
532 7 1 23.267 11.553 18.324 
533 7 1 23.613 14.027 17.585 
534 7 1 23.286 16.411 16.813 
535 7 1 22.270 18.485 16.914 
536 7 1 20.581 20.048 17.940 
537 7 1 19.459 22.213 18.321 
538 7 1 18.973 24.758 18.083 
539 7 1 18.379 27.262 17.808 
540 7 1 19.801 29.023 16.876 
541 7 1 21.950 30.578 17.258 
542 7 1 23.123 32.476 16.938 
543 7 1 24.556 34.222 17.061 
544 7 1 26.630 35.481 17.916 
545 7 1 27.581 35.648 20.271 
546 7 1 28.403 35.195 22.662 
547 7 1 30.326 33.634 23.500 
548 7 1 32.036 32.039 23.542 
549 7 1 32.119 30.456 21.636 
550 7 1 31.384 29.144 19.774 
551 7 1 29.497 27.277 19.686 
552 7 1 27.417 25.668 19.600 
553 7 1 25.890 23.839 19.621 
554 7 1 25.208 21.292 19.609 
555 7 1 25.566 18.949 20.523 
556 7 1 25.361 16.531 21.323 
557 7 1 25.190 14.515 22.423 
558 7 1 24.961 13.298 24.733 
559 7 1 25.081 11.703 26.445 
560 7 1 25.966 10.194 27.954 
561 7 1 27.209  9.355 29.947 
562 7 1 29.765  9.660 30.463 
563 7 1 30.905 11.251 32.122 
564 7 1 31.679 12.683 34.152 
565 7 1 32.543 13.941 36.195 
566 7 1 33.080 15.030 38.487 
567 7 1 33.232 15.968 40.815 
568 7 1 32.006 15.297 42.674 
569 7 1 29.608 15.004 43.681 
570 7 1 27.179 14.851 44.621 
571 7 1 24.710 14.559 45.231 
572 7 1 22.643 15.283 43.909 
573 7 1 21.511 15.726 42.048 
574 7 1 21.752 16.334 39.545 
575 7 1 22.996 15.234 37.521 
576 7 1 24.253 16.688 35.806 
577 7 1 26.718 16.460 34.999 
578 7 1 27.669 15.633 32.804 
579 7 1 28.507 14.770 30.547 
580 7 1 28.692 14.508 28.095 
581 7 1 27.946 16.286 26.520 
582 7 1 27.324 18.521 25.453 
583 7 1 26.748 20.774 24.409 
584 7 1 25.979 23.014 24.322 
585 7 1 24.950 25.219 25.370 
586 7 1 24.265 27.591 26.115 
587 7 1 23.525 29.997 26.662 
588 7 1 22.351 32.373 27.048 
589 7 1 21.021 34.627 27.134 
590 7 1 19.746 36.926 27.164 
591 7 1 18.028 38.754 26.930 
592 7 1 18.256 41.188 26.973 
593 7 1 19.244 43.448 26.199 
594 7 1 20.695 45.460 25.838 
595 7 1 22.557 47.209 25.823 
596 7 1 24.417 49.034 26.017 
597 8 1 17.949 25.442 40.360 
598 8 1 19.155 27.067 39.115 
599 8 1 19.334 29.443 38.302 
600 8 1 20.258 30.629 40.171 
601 8 1 21.799 31.408 42.088 
602 8 1 22.860 30.829 44.107 
603 8 1 23.461 30.222 46.190 
604 8 1 24.362 30.672 48.585 
605 8 1 25.088 30.522 50.963 
606 8 1 25.673 29.656 53.265 
607 8 1 27.931 28.908 -2.517 
608 8 1 30.167 27.923 -1.658 
609 8 1 32.477 26.838 -1.023 
610 8 1 33.141 24.349 -0.477 
611 8 1 35.332 23.563 -0.360 
612 8 1 37.541 23.148 -1.457 
613 8 1 39.668 22.803 -2.777 
614 8 1 41.688 22.457 -4.222 
615 8 1 43.579 21.760 50.869 
616 8 1 45.399 20.953 49.323 
617 8 1 45.296 19.540 47.067 
618 8 1  2.983 18.390 45.738 
619 8 1  3.275 15.783 45.757 
620 8 1  3.832 13.255 45.934 
621 8 1  4.909 10.929 46.010 
622 8 1  3.643  9.207 45.153 
623 8 1  2.015  7.660 44.229 
624 8 1 44.472  9.107 43.714 
625 8 1 43.262 11.308 44.158 
626 8 1 42.084 13.453 44.876 
627 8 1 41.318 15.845 45.603 
628 8 1 40.759 18.236 46.421 
629 8 1 40.660 20.632 47.210 
630 8 1 40.356 23.145 47.617 
631 8 1 39.349 25.072 48.285 
632 8 1 38.293 26.352 49.767 
633 8 1 38.182 27.206 52.334 
634 8 1 38.414 28.076 -1.897 
635 8 1 40.629 28.525 -1.649 
636 8 1 42.865 29.393 -2.427 
637 8 1 45.095 29.382 -3.156 
638 8 1 45.461 28.079 51.337 
639 8 1 45.961 26.852 49.201 
640 8 1 46.617 25.674 47.043 
641 8 1  3.103 24.199 45.000 
642 8 1  3.052 23.604 42.596 
643 8 1  3.210 25.663 41.089 
644 8 1  3.975 25.697 38.589 
645 8 1  4.908 24.878 36.680 
646 8 1  6.598 23.399 35.553 
647 8 1  8.409 22.326 34.364 
648 8 1 10.350 21.474 33.424 
649 8 1 12.791 20.704 33.540 
650 8 1 14.671 19.401 32.920 
651 8 1 15.841 17.531 31.809 
652 8 1 17.302 16.446 30.300 
653 8 1 16.057 16.797 28.246 
654 8 1 14.116 16.493 26.648 
655 8 1 12.200 16.223 24.996 
656 8 1 10.167 16.691 23.899 
657 8 1  7.996 17.827 23.351 
658 8 1  5.890 19.321 22.654 
659 8 1  3.875 18.326 23.163 
660 8 1  1.987 16.965 23.859 
661 8 1 45.070 16.864 25.855 
662 8 1 44.720 17.147 28.378 
663 8 1 44.615 17.306 30.985 
664 8 1 44.615 17.027 33.547 
665 8 1 43.754 16.130 35.472 
666 8 1 41.937 14.772 36.700 
667 8 1 39.436 15.225 37.216 
668 8 1 37.650 15.889 38.473 
669 8 1 36.907 17.522 40.449 
670 8 1 36.162 19.275 42.208 
671 8 1 37.445 20.647 44.057 
672 8 1 36.259 22.480 45.421 
673 8 1 34.413 23.889 45.759 
674 8 1 32.160 24.964 45.100 
675 9 1 30.029 37.424 30.052 
676 9 1 29.674 38.560 31.989 
677 9 1 29.535 40.967 32.167 
678 9 1 30.337 43.323 32.589 
679 9 1 30.381 45.629 33.368 
680 9 1 29.357 47.817 34.126 
681 9 1 27.936  0.557 34.969 
682 9 1 26.651  2.492 35.934 
683 9 1 25.362  2.667 38.139 
684 9 1 23.466  1.362 38.249 
685 9 1 21.700 -0.017 38.673 
686 9 1 19.413 48.514 39.592 
687 9 1 17.133 47.684 40.436 
688 9 1 14.951 47.160 39.899 
689 9 1 12.894 47.064 38.405 
690 9 1 11.886 48.737 36.864 
691 9 1  9.787 49.539 36.898 
692 9 1  8.143  1.957 38.032 
693 9 1  6.873  3.708 39.389 
694 9 1  5.485  5.665 40.533 
695 9 1  5.737  8.245 40.940 
696 9 1  5.962 10.738 41.518 
697 9 1  5.789 13.259 41.938 
698 9 1  5.684 15.749 42.430 
699 9 1  6.017 18.237 41.701 
700 9 1  7.094 20.139 40.772 
701 9 1  8.008 22.159 40.187 
702 9 1  7.773 24.371 41.619 
703 9 1  7.473 26.380 43.204 
704 9 1  7.129 27.468 45.264 
705 9 1  7.396 27.451 47.776 
706 9 1  7.436 27.467 50.279 
707 9 1  9.463 26.790 51.088 
708 9 1 10.245 24.805 49.870 
709 9 1 11.473 24.650 47.598 
710 9 1 12.439 25.413 45.646 
711 9 1 12.422 26.419 43.680 
712 9 1 11.560 26.963 41.325 
713 9 1 10.907 27.148 38.877 
714 9 1 10.365 26.846 36.385 
715 9 1  9.654 26.639 33.957 
716 9 1  8.826 26.662 31.438 
717 9 1  9.050 26.969 29.153 
718 9 1 10.305 27.030 26.960 
719 9 1 10.745 27.909 24.926 
720 9 1 10.621 29.866 23.212 
721 9 1 11.077 32.378 23.580 
722 9 1 11.633 34.964 23.946 
723 9 1 12.467 37.419 24.327 
724 9 1 13.612 39.714 24.441 
725 9 1 14.330 42.152 25.131 
726 9 1 14.461 44.453 23.851 
727 9 1 12.345 45.927 23.500 
728 9 1 10.055 46.911 22.957 
729 9 1  7.767 47.837 22.439 
730 9 1  5.394 47.934 22.233 
731 9 1  3.034 47.071 21.853 
732 9 1 45.113 45.870 20.922 
733 9 1 42.970 45.822 20.160 
734 9 1 40.793 46.304 19.419 
735 9 1 38.280 45.732 19.180 
736 9 1 38.169 43.520 19.081 
737 9 1 37.247 42.496 21.180 
738 9 1 36.467 41.005 23.047 
739 9 1 36.968 38.397 23.198 
740 9 1 37.003 35.764 23.524 
741 9 1 36.392 33.239 23.620 
742 9 1 36.502 30.949 22.963 
743 9 1 37.953 29.524 24.155 
744 9 1 39.490 28.655 25.637 
745 9 1 40.329 30.278 27.490 
746 9 1 42.414 30.201 29.105 
747 9 1 43.632 30.111 31.367 
748 9 1 45.560 31.698 31.830 
749 9 1  3.067 33.508 32.159 
750 9 1  4.961 35.253 32.703 
751 9 1  7.274 35.745 33.262 
752 9 1  8.449 33.536 33.869 
753 10 1 21.924 17.739 51.646 
754 10 1 22.598 20.254 51.090 
755 10 1 23.290 22.627 50.457 
756 10 1 23.159 23.955 48.650 
757 10 1 22.876 24.408 46.211 
758 10 1 22.740 24.884 43.644 
759 10 1 23.045 25.319 41.109 
760 10 1 23.686 25.834 38.656 
761 10 1 22.247 25.092 36.743 
762 10 1 22.804 23.063 35.244 
763 10 1 23.151 21.008 33.843 
764 10 1 21.157 20.206 32.539 
765 10 1 20.267 17.999 33.574 
766 10 1 19.364 15.808 34.603 
767 10 1 18.298 13.527 35.187 
768 10 1 16.745 12.375 33.585 
769 10 1 15.806 10.938 31.600 
770 10 1 14.656  9.207 30.023 
771 10 1 13.685  7.476 28.408 
772 10 1 12.542  6.734 26.468 
773 10 1 11.817  6.034 24.274 
774 10 1 11.453  4.615 22.282 
775 10 1 10.819  2.881 20.446 
776 10 1 10.186  0.986 18.912 
777 10 1  9.710 47.974 17.578 
778 10 1  8.908 45.709 16.724 
779 10 1  7.513 44.216 15.442 
780 10 1  7.808 44.306 12.812 
781 10 1  7.758 44.798 10.281 
782 10 1  6.534 43.468  8.448 
783 10 1  5.480 42.350  6.388 
784 10 1  5.000 41.588  4.073 
785 10 1  3.685 43.139  2.405 
786 10 1  2.084 44.761  1.050 
787 10 1  2.830 46.714 -0.555 
788 10 1  3.882 48.440 -1.986 
789 10 1  5.103  0.782 -3.434 
790 10 1  6.311  2.193 51.319 
791 10 1  7.469  3.724 49.518 
792 10 1  6.614  3.866 47.097 
793 10 1  6.352  2.897 44.991 
794 10 1  6.349  0.980 43.303 
795 10 1  6.472 48.313 41.704 
796 10 1  8.445 46.717 41.553 
797 10 1 10.125 44.830 41.295 
798 10 1 11.663 43.167 41.834 
799 10 1 13.629 43.454 43.167 
800 10 1 15.698 44.495 44.264 
801 10 1 17.761 45.385 45.574 
802 10 1 19.943 46.059 46.486 
803 10 1 22.097 46.977 47.780 
804 10 1 24.195 47.951 48.968 
805 10 1 24.223  1.102 49.994 
806 10 1 24.447  3.651 50.447 
807 10 1 23.459  5.745 50.833 
808 10 1 21.293  7.055 50.890 
809 10 1 19.437  8.801 50.538 
810 10 1 18.510 10.608 51.389 
811 10 1 18.281 12.167 53.381 
812 10 1 18.061 13.943 -1.344 
813 10 1 19.601 13.954  0.745 
814 10 1 20.243 16.025  2.130 
815 10 1 20.042 17.593  3.795 
816 10 1 18.705 18.951  5.213 
817 10 1 16.930 20.870  5.377 
818 10 1 14.499 20.856  6.499 
819 10 1 12.282 20.831  7.736 
820 10 1 10.035 21.517  6.954 
821 10 1  7.671 22.518  6.404 
822 10 1  5.542 23.915  6.004 
823 10 1  3.717 24.575  4.712 
824 10 1  1.718 23.161  4.861 
825 10 1 43.913 22.047  5.858 
826 10 1 42.257 20.697  7.394 
827 10 1 40.803 19.222  8.877 
828 10 1 41.592 18.288 11.197 
829 10 1 42.537 16.752 13.063 
830 10 1 43.575 15.085 14.723 
831 11 1 33.555 11.452 -2.135 
832 11 1 33.099 11.239  0.350 
833 11 1 33.558 11.168  2.552 
834 11 1 35.372 11.569  4.259 
835 11 1 36.855 10.669  5.629 
836 11 1 38.256  8.917  6.630 
837 11 1 38.560  7.081  8.120 
838 11 1 38.938  5.822 10.037 
839 11 1 39.192  3.449  9.962 
840 11 1 39.535  1.090 10.657 
841 11 1 41.256 48.831 10.427 
842 11 1 43.416 47.854  9.504 
843 11 1 45.462 46.646  8.623 
844 11 1  2.940 47.110 10.137 
845 11 1  4.260 48.130 11.703 
846 11 1  6.515 48.864 12.604 
847 11 1  8.761  0.291 13.450 
848 11 1 11.285  0.148 13.828 
849 11 1 13.191  1.716 14.569 
850 11 1 14.423  2.453 16.478 
851 11 1 15.264  0.279 17.753 
852 11 1 14.496 47.542 18.829 
853 11 1 13.580 45.241 19.298 
854 11 1 12.845 42.853 19.497 
855 11 1 11.627 40.553 19.618 
856 11 1  9.724 39.596 18.254 
857 11 1  7.851 39.593 16.784 
858 11 1  5.633 40.070 17.958 
859 11 1  3.897 40.023 19.507 
860 11 1  2.791 38.704 21.286 
861 11 1 45.975 37.058 22.847 
862 11 1 45.638 34.530 22.668 
863 11 1 45.659 31.964 22.440 
864 11 1 45.309 29.918 21.323 
865 11 1 44.490 28.771 19.159 
866 11 1 43.748 27.323 17.143 
867 11 1 44.010 26.463 15.054 
868 11 1 44.418 28.352 13.191 
869 11 1 44.790 30.492 11.809 
870 11 1 44.382 32.686 10.995 
871 11 1 44.105 34.593 12.657 
872 11 1 43.636 36.943 13.796 
873 11 1 42.911 38.944 15.194 
874 11 1 41.625 41.026 14.333 
875 11 1 39.156 41.334 13.817 
876 11 1 36.776 41.968 13.364 
877 11 1 35.925 44.478 13.191 
878 11 1 34.933 46.822 12.928 
879 11 1 35.036 49.118 12.554 
880 11 1 35.396  2.109 12.147 
881 11 1 34.816  4.669 12.015 
882 11 1 34.626  7.278 11.988 
883 11 1 34.598  9.870 12.027 
884 11 1 34.276 12.451 11.802 
885 11 1 34.303 15.042 11.660 
886 11 1 34.673 17.545 11.237 
887 11 1 35.516 19.992 11.093 
888 11 1 36.750 21.665 10.080 
889 11 1 37.995 22.828  8.034 
890 11 1 39.224 23.849  6.063 
891 11 1 39.947 25.333  4.102 
892 11 1 37.961 26.277  3.543 
893 11 1 35.706 26.759  3.518 
894 11 1 34.477 24.489  4.128 
895 11 1 34.167 22.015  4.736 
896 11 1 33.272 19.766  5.612 
897 11 1 32.394 17.518  6.428 
898 11 1 32.796 15.385  7.134 
899 11 1 33.156 13.186  7.796 
900 11 1 32.598 10.691  8.071 
901 11 1 32.230  8.107  7.964 
902 11 1 32.046  5.511  7.878 
903 11 1 31.504  2.936  7.759 
904 11 1 30.889  1.418  5.581 
905 11 1 30.388 -0.029  3.469 
906 11 1 30.171 48.031  1.197 
907 11 1 31.244 46.759 -0.402 
908 11 1 33.336 45.618 -1.556 
909 12 1 13.939 35.995 -1.305 
910 12 1 13.050 33.511 -1.370 
911 12 1 12.574 31.167 -2.038 
912 12 1 11.944 29.061 -2.870 
913 12 1 12.331 26.859 -1.684 
914 12 1 12.722 24.601 -0.428 
915 12 1 11.159 22.864  0.662 
916 12 1  9.644 21.091  1.674 
917 12 1  8.390 19.231  2.954 
918 12 1  7.367 17.419  4.457 
919 12 1  6.325 15.834  6.211 
920 12 1  5.159 14.321  7.993 
921 12 1  5.434 11.975  9.031 
922 12 1  5.018  9.490  9.754 
923 12 1  4.358  6.992 10.196 
924 12 1  4.011  5.668 12.417 
925 12 1  4.513  4.909 14.498 
926 12 1  6.012  3.715 16.306 
927 12 1  7.870  4.937 16.640 
928 12 1  8.057  5.806 19.098 
929 12 1  9.414  7.891 19.976 
930 12 1 10.967  9.747 20.655 
931 12 1 12.498 11.803 21.084 
932 12 1 14.246 13.665 21.451 
933 12 1 15.719 15.609 22.027 
934 12 1 17.227 17.676 22.357 
935 12 1 17.359 19.288 24.377 
936 12 1 17.734 20.892 26.382 
937 12 1 17.933 22.780 28.098 
938 12 1 17.683 24.454 29.929 
939 12 1 18.036 24.292 32.423 
940 12 1 18.493 23.330 34.514 
941 12 1 18.540 21.534 36.035 
942 12 1 17.659 19.448 37.189 
943 12 1 16.977 17.322 38.342 
944 12 1 16.649 14.963 39.291 
945 12 1 16.546 12.609 40.281 
946 12 1 16.712 10.510 38.804 
947 12 1 16.042  8.934 36.985 
948 12 1 16.398  7.797 35.068 
949 12 1 17.711  6.366 33.409 
950 12 1 18.044  5.452 31.389 
951 12 1 17.629  5.310 28.817 
952 12 1 17.393  5.089 26.226 
953 12 1 17.451  7.090 24.448 
954 12 1 17.455  9.013 22.786 
955 12 1 16.957 10.774 21.059 
956 12 1 16.583 10.681 18.611 
957 12 1 18.326 10.310 17.055 
958 12 1 20.101  8.778 15.763 
959 12 1 21.944  7.297 14.811 
960 12 1 23.702  5.416 14.033 
961 12 1 25.009  4.861 15.895 
962 12 1 26.011  5.080 18.189 
963 12 1 26.993  5.069 20.542 
964 12 1 27.983  4.874 22.926 
965 12 1 29.122  4.824 25.275 
966 12 1 30.144  4.349 27.538 
967 12 1 30.836  3.442 29.843 
968 12 1 32.098  2.117 31.302 
969 12 1 31.651 -0.300 30.401 
970 12 1 31.685 46.593 29.586 
971 12 1 31.811 44.121 28.926 
972 12 1 32.126 41.717 28.157 
973 12 1 32.584 39.381 27.295 
974 12 1 33.286 36.975 26.717 
975 12 1 34.390 35.002 28.160 
976 12 1 34.705 33.779 30.160 
977 12 1 35.098 33.258 32.713 
978 12 1 35.202 32.815 35.283 
979 12 1 34.379 34.431 37.216 
980 12 1 33.747 35.981 39.260 
981 12 1 33.243 37.649 41.140 
982 12 1 32.885 39.794 41.731 
983 12 1 32.605 42.334 41.275 
984 12 1 32.769 43.519 38.956 
985 12 1 32.941 44.407 36.510 
986 12 1 34.154 46.490 35.479 