LAMMPS data file generated by aa2cg.

2000 atoms
1 atom types
1975 bonds
1 bond types
1950 angles
1 angle types
1925 dihedrals
1 dihedral types

 0.000 50.761 xlo xhi
 0.000 37.969 ylo yhi
 0.000 63.235 zlo zhi

Masses

1 24.022

Atoms # molecular

1 1 1 34.229  7.627 26.342 
2 1 1 26.581 29.472 15.668 
3 2 1 12.568 35.790 20.920 
4 2 1 19.700 30.937 31.970 
5 3 1 31.484  8.024 -3.521 
6 3 1 22.741 32.371 42.299 
7 4 1 21.648  6.317 48.998 
8 4 1 36.875 39.181 47.016 
9 5 1 36.773  9.550 38.589 
10 5 1 32.367 17.215 32.567 
11 6 1 40.574 13.334 30.916 
12 6 1 16.527  5.348 50.717 
13 7 1 16.188 18.988 49.139 
14 7 1 10.050 22.884 47.667 
15 8 1 47.955 32.954 16.070 
16 8 1 14.826 10.342 44.526 
17 9 1 29.432 24.976 50.223 
18 9 1  0.688 16.235 41.068 
19 10 1 11.875 36.921 51.645 
20 10 1 25.287  6.818 17.420 
21 11 1 41.741 25.328 15.176 
22 11 1 33.464 23.962 28.043 
23 12 1 31.241 39.305 50.885 
24 12 1  3.774 40.338  6.999 
25 13 1 20.973 30.451 -4.467 
26 13 1 45.175 37.665 -4.768 
27 14 1  6.067 10.912  4.942 
28 14 1 44.470 26.914 11.015 
29 15 1 10.360 22.792 33.506 
30 15 1 35.361 34.945 32.451 
31 16 1 30.860  6.100 53.148 
32 16 1 23.187 29.661  0.762 
33 17 1 20.521 16.954 30.550 
34 17 1 30.016 18.209 20.152 
35 18 1  3.620 31.363 16.683 
36 18 1 16.796 23.088  9.150 
37 19 1 38.065 37.827 28.457 
38 19 1 48.077 10.045  1.313 
39 20 1 -0.044 38.005  6.863 
40 20 1 18.741 11.240 48.132 
41 21 1 15.885 41.718 36.216 
42 21 1  8.382 32.880 47.323 
43 22 1 37.649 13.177  0.846 
44 22 1 -0.791 11.417 18.623 
45 23 1 26.294 17.210 51.788 
46 23 1 30.442  7.149  4.115 
47 24 1 10.074 24.563 43.282 
48 24 1 18.739 15.151 10.996 
49 25 1 18.317 14.772 50.832 
50 25 1 43.553 11.595 39.708 
51 1 1 34.590  6.010 28.307 
52 1 1 35.105 42.194 30.091 
53 1 1 35.709 40.674 32.002 
54 1 1 36.007 39.401 34.199 
55 1 1 35.843 37.785 36.209 
56 1 1 35.524 35.891 37.946 
57 1 1 35.736 33.978 39.765 
58 1 1 36.105 32.375 41.800 
59 1 1 36.363 30.934 43.885 
60 1 1 36.055 29.457 45.978 
61 1 1 35.486 27.850 47.948 
62 1 1 34.713 27.015 50.161 
63 1 1 34.078 26.984 52.605 
64 1 1 32.073 26.088 53.693 
65 1 1 30.499 24.331 54.598 
66 1 1 28.965 22.290 54.944 
67 1 1 27.399 20.253 55.293 
68 1 1 25.764 18.266 55.631 
69 1 1 26.326 16.240 -6.009 
70 1 1 25.718 13.754 -6.341 
71 1 1 25.319 12.432 -4.379 
72 1 1 23.606 13.472 -2.710 
73 1 1 21.739 13.831 -0.887 
74 1 1 19.937 14.049  1.035 
75 1 1 17.859 12.577  1.324 
76 1 1 15.566 11.420  1.445 
77 1 1 13.216 10.329  1.358 
78 1 1 11.108  8.928  1.561 
79 1 1  8.818  7.925  1.735 
80 1 1  7.136  6.329  1.877 
81 1 1  5.952 41.963  2.376 
82 1 1  4.652 39.832  2.950 
83 1 1  3.019 37.982  3.099 
84 1 1  1.567 35.837  2.617 
85 1 1  0.213 33.849  1.698 
86 1 1 49.480 31.959  0.698 
87 1 1 -0.345 30.070 -0.681 
88 1 1  1.099 28.786 -2.090 
89 1 1  1.609 30.250 -4.256 
90 1 1  2.071 30.624 -6.842 
91 1 1  2.623 30.983 53.816 
92 1 1  3.099 31.346 51.308 
93 1 1  3.810 31.289 48.853 
94 1 1  4.053 30.642 46.567 
95 1 1  4.881 29.917 44.483 
96 1 1  7.001 29.068 45.469 
97 1 1  8.467 28.165 47.470 
98 1 1  9.808 27.139 49.409 
99 1 1 10.990 26.206 51.473 
100 1 1 11.848 25.337 53.701 
101 1 1 13.106 24.583 55.890 
102 1 1 15.032 25.962 -6.199 
103 1 1 15.693 26.148 -3.657 
104 1 1 16.671 25.879 -1.209 
105 1 1 18.743 27.256 -0.412 
106 1 1 19.020 27.866  2.092 
107 1 1 19.393 28.038  4.686 
108 1 1 19.739 28.596  7.146 
109 1 1 18.984 28.716  9.305 
110 1 1 17.564 28.237 11.339 
111 1 1 15.897 26.348 11.520 
112 1 1 14.222 24.414 11.895 
113 1 1 12.887 22.209 11.866 
114 1 1 11.437 20.057 11.640 
115 1 1  9.887 18.055 11.634 
116 1 1 10.297 15.750 12.928 
117 1 1 11.455 13.937 14.080 
118 1 1 13.648 13.399 14.608 
119 1 1 16.153 13.903 14.894 
120 1 1 18.512 14.296 15.798 
121 1 1 20.693 14.872 16.825 
122 1 1 21.879 16.204 15.368 
123 1 1 23.046 17.569 13.844 
124 1 1 25.244 18.758 14.716 
125 1 1 26.125 20.388 16.554 
126 1 1 27.623 22.446 16.269 
127 1 1 26.940 24.904 15.593 
128 1 1 26.606 27.130 14.469 
129 2 1 14.955 35.245 21.802 
130 2 1 17.394 34.900 22.399 
131 2 1 19.916 34.462 22.604 
132 2 1 21.592 33.479 24.339 
133 2 1 21.848 31.231 24.186 
134 2 1 21.217 28.957 25.019 
135 2 1 20.819 26.887 26.440 
136 2 1 18.518 25.734 26.780 
137 2 1 17.538 26.420 28.723 
138 2 1 16.301 28.354 29.940 
139 2 1 15.166 30.402 30.820 
140 2 1 13.799 31.861 32.133 
141 2 1 15.118 33.486 33.640 
142 2 1 16.333 35.245 35.117 
143 2 1 17.423 37.084 36.486 
144 2 1 18.119 39.000 38.169 
145 2 1 18.744 41.029 39.610 
146 2 1 20.058 42.720 40.761 
147 2 1 20.787  6.470 42.328 
148 2 1 21.207  8.402 43.874 
149 2 1 22.941  7.409 45.289 
150 2 1 24.967  5.749 45.476 
151 2 1 26.111 42.314 46.787 
152 2 1 26.501 40.890 48.819 
153 2 1 26.270 38.929 50.558 
154 2 1 26.242 37.033 52.346 
155 2 1 24.508 36.739 54.104 
156 2 1 22.795 36.546 55.984 
157 2 1 21.158 36.291 -5.429 
158 2 1 19.619 35.978 -3.350 
159 2 1 18.023 36.308 -1.336 
160 2 1 17.902 38.128  0.511 
161 2 1 17.284 40.305  1.284 
162 2 1 16.614 42.743  0.880 
163 2 1 17.033  7.031  0.915 
164 2 1 17.495  7.327  3.324 
165 2 1 18.224  7.633  5.661 
166 2 1 18.193  7.163  7.986 
167 2 1 17.741  6.071 10.339 
168 2 1 17.212  4.832 12.580 
169 2 1 17.422 42.341 14.797 
170 2 1 18.443 42.198 17.115 
171 2 1 18.823  6.280 18.391 
172 2 1 18.016  6.737 20.784 
173 2 1 18.455  8.909 21.929 
174 2 1 18.641 11.124 23.228 
175 2 1 18.422 13.290 24.607 
176 2 1 18.046 15.327 26.058 
177 2 1 16.416 15.660 28.021 
178 2 1 14.811 16.277 29.881 
179 2 1 13.418 16.966 31.914 
180 2 1 12.045 18.214 33.703 
181 2 1 12.761 19.629 35.687 
182 2 1 13.728 21.497 36.727 
183 2 1 14.762 23.183 37.831 
184 2 1 15.851 24.879 39.088 
185 2 1 17.587 26.704 39.625 
186 2 1 19.058 28.768 40.117 
187 2 1 17.795 30.738 39.845 
188 2 1 15.522 31.796 40.488 
189 2 1 13.059 32.448 41.001 
190 2 1 11.691 31.667 43.075 
191 2 1 11.584 30.353 44.822 
192 2 1 12.624 29.441 47.098 
193 2 1 13.813 30.746 48.934 
194 2 1 14.666 32.200 50.817 
195 2 1 15.872 34.175 50.340 
196 2 1 16.137 36.370 48.955 
197 2 1 16.724 38.019 47.160 
198 2 1 18.824 38.831 46.283 
199 2 1 20.702 39.331 45.081 
200 2 1 21.933 38.935 42.732 
201 2 1 23.312 38.119 40.672 
202 2 1 22.586 37.968 38.253 
203 2 1 22.040 37.684 35.825 
204 2 1 21.395 37.285 33.393 
205 2 1 20.489 35.218 32.426 
206 2 1 19.305 33.243 31.542 
207 3 1 31.517  9.047 -1.046 
208 3 1 31.852 10.659  0.568 
209 3 1 32.187 12.663  1.980 
210 3 1 33.692 12.571  4.064 
211 3 1 33.577 14.594  5.357 
212 3 1 33.728 16.960  5.989 
213 3 1 33.988 19.268  7.048 
214 3 1 36.032 20.089  8.241 
215 3 1 38.379 20.183  7.851 
216 3 1 40.622 19.532  6.881 
217 3 1 42.904 18.676  6.056 
218 3 1 45.204 17.787  5.274 
219 3 1 47.556 17.146  4.975 
220 3 1 49.784 15.958  4.517 
221 3 1  1.481 15.262  4.236 
222 3 1  3.809 15.400  4.857 
223 3 1  4.841 14.884  6.818 
224 3 1  5.515 13.604  8.940 
225 3 1  6.789 12.104 10.502 
226 3 1  8.252 10.678 12.160 
227 3 1  9.695  9.296 13.743 
228 3 1  8.951  7.129 14.799 
229 3 1  7.949 42.761 15.392 
230 3 1  7.019 40.715 14.922 
231 3 1  6.598 38.558 13.676 
232 3 1  7.221 38.249 11.204 
233 3 1  8.179 37.754  8.805 
234 3 1  8.720 38.141  6.564 
235 3 1  9.432 39.609  4.518 
236 3 1 10.521 42.009  4.554 
237 3 1 11.986  6.146  4.485 
238 3 1 13.597  7.607  5.433 
239 3 1 14.412  8.917  7.439 
240 3 1 14.385 10.714  8.943 
241 3 1 14.229 13.204  9.647 
242 3 1 14.483 15.611 10.439 
243 3 1 14.213 17.383  8.921 
244 3 1 14.903 19.128  7.104 
245 3 1 15.682 20.771  5.245 
246 3 1 16.403 22.348  3.265 
247 3 1 15.660 24.469  2.865 
248 3 1 13.960 26.345  2.329 
249 3 1 12.071 28.182  2.075 
250 3 1 10.202 29.959  1.367 
251 3 1  9.386 31.613 -0.249 
252 3 1  9.393 33.142 -2.293 
253 3 1  9.968 34.991 -3.665 
254 3 1 11.045 37.025 -2.473 
255 3 1 13.400 38.001 -2.654 
256 3 1 15.461 39.142 -3.516 
257 3 1 17.742 40.291 -4.094 
258 3 1 18.283 42.810 -3.559 
259 3 1 18.832  7.290 -2.991 
260 3 1 19.919  8.571 -1.491 
261 3 1 21.434  8.988  0.654 
262 3 1 21.950 10.033  2.669 
263 3 1 21.796 11.299  4.885 
264 3 1 19.714 12.147  6.033 
265 3 1 18.079 13.739  6.171 
266 3 1 16.229 15.063  5.534 
267 3 1 13.809 15.696  4.700 
268 3 1 12.458 17.274  3.666 
269 3 1 12.182 19.732  2.804 
270 3 1 11.841 22.207  2.020 
271 3 1 11.661 22.791 -0.541 
272 3 1 11.371 25.048 -1.888 
273 3 1 11.225 27.187 -3.197 
274 3 1 11.538 29.406 -4.598 
275 3 1 13.183 31.380 -4.921 
276 3 1 14.806 33.418 -5.205 
277 3 1 16.757 33.594 -6.998 
278 3 1 18.417 33.940 54.350 
279 3 1 19.865 34.137 52.166 
280 3 1 21.348 36.139 51.650 
281 3 1 22.763 36.579 49.453 
282 3 1 23.358 36.111 47.222 
283 3 1 22.883 33.621 46.820 
284 3 1 22.719 32.966 44.581 
285 4 1 23.390  7.426 50.550 
286 4 1 24.968  7.614 52.551 
287 4 1 26.502  7.940 54.613 
288 4 1 28.732  9.289 54.649 
289 4 1 29.835 11.261 54.142 
290 4 1 29.435 13.147 52.488 
291 4 1 29.021 13.988 50.362 
292 4 1 28.963 14.729 48.151 
293 4 1 27.367 16.454 47.130 
294 4 1 26.226 18.008 45.556 
295 4 1 24.847 19.637 44.090 
296 4 1 23.235 20.999 42.654 
297 4 1 21.481 22.275 41.352 
298 4 1 20.141 22.544 39.494 
299 4 1 19.491 22.888 37.258 
300 4 1 21.300 22.289 35.873 
301 4 1 22.987 21.473 34.439 
302 4 1 25.033 22.798 34.426 
303 4 1 27.181 21.483 34.060 
304 4 1 29.082 20.922 32.677 
305 4 1 31.384 21.511 32.829 
306 4 1 33.865 21.082 33.423 
307 4 1 36.086 20.446 34.446 
308 4 1 36.341 19.007 36.209 
309 4 1 36.440 18.286 38.748 
310 4 1 35.472 19.527 40.943 
311 4 1 36.956 20.420 42.949 
312 4 1 36.333 20.395 45.456 
313 4 1 35.846 20.534 48.076 
314 4 1 35.191 20.781 50.511 
315 4 1 34.688 21.156 52.926 
316 4 1 34.395 21.620 55.446 
317 4 1 34.073 21.150 -5.335 
318 4 1 34.849 21.040 -2.823 
319 4 1 34.676 18.914 -1.261 
320 4 1 33.634 17.550  0.283 
321 4 1 31.529 17.028  1.654 
322 4 1 29.881 16.529  3.576 
323 4 1 28.562 16.111  5.672 
324 4 1 29.070 17.401  7.884 
325 4 1 30.045 18.654  9.869 
326 4 1 31.229 19.045 11.825 
327 4 1 30.267 18.297 14.062 
328 4 1 30.166 16.037 15.283 
329 4 1 32.274 14.982 16.011 
330 4 1 34.634 14.085 15.674 
331 4 1 35.458 12.547 13.814 
332 4 1 37.583 11.032 13.883 
333 4 1 37.839  8.861 12.682 
334 4 1 37.995  6.626 11.627 
335 4 1 37.271 42.792 10.364 
336 4 1 37.383  5.384  8.097 
337 4 1 37.427 41.437  6.525 
338 4 1 36.825 41.770  4.055 
339 4 1 36.959 41.742  1.700 
340 4 1 38.335 42.339 -0.141 
341 4 1 40.100 43.686 -1.457 
342 4 1 41.026  8.034 -1.689 
343 4 1 41.901 10.466 -1.733 
344 4 1 42.070 12.483 -2.497 
345 4 1 41.573 14.301 -4.268 
346 4 1 41.666 16.486 -5.250 
347 4 1 40.150 18.328 -4.325 
348 4 1 38.513 20.094 -4.378 
349 4 1 39.586 21.291 -6.268 
350 4 1 41.278 21.979 55.134 
351 4 1 42.812 20.249 54.561 
352 4 1 43.935 18.015 54.426 
353 4 1 45.044 15.668 54.051 
354 4 1 44.336 13.352 55.116 
355 4 1 43.163 11.289 55.970 
356 4 1 41.893  9.167 -6.728 
357 4 1 40.530  7.171 -7.153 
358 4 1 38.766  5.523 55.036 
359 4 1 39.330 41.347 53.756 
360 4 1 40.597 39.910 52.427 
361 4 1 40.488 39.317 50.166 
362 4 1 38.812 38.784 48.746 
363 5 1 34.543  9.337 38.080 
364 5 1 32.785 10.880 39.313 
365 5 1 30.786 12.243 40.455 
366 5 1 28.557 12.843 39.248 
367 5 1 26.549 13.701 37.851 
368 5 1 24.370 14.231 36.534 
369 5 1 22.001 14.283 35.636 
370 5 1 19.803 14.694 34.325 
371 5 1 18.434 16.842 34.012 
372 5 1 17.384 19.209 33.657 
373 5 1 16.570 21.605 33.188 
374 5 1 15.554 23.908 32.509 
375 5 1 14.380 24.365 30.259 
376 5 1 12.993 24.946 28.012 
377 5 1 13.874 26.128 25.944 
378 5 1 15.150 27.528 24.601 
379 5 1 16.891 29.450 24.281 
380 5 1 16.784 31.642 25.753 
381 5 1 16.505 33.572 27.341 
382 5 1 18.087 35.627 27.424 
383 5 1 19.268 37.304 26.503 
384 5 1 19.704 38.861 24.470 
385 5 1 17.934 40.267 23.267 
386 5 1 16.055 40.506 21.499 
387 5 1 16.170 39.455 19.423 
388 5 1 15.775 37.571 17.622 
389 5 1 14.939 36.008 15.662 
390 5 1 12.949 34.300 15.770 
391 5 1 11.049 32.665 16.034 
392 5 1  9.436 30.655 16.515 
393 5 1  8.291 28.921 14.963 
394 5 1  6.713 27.543 13.568 
395 5 1  4.626 26.526 14.439 
396 5 1  2.697 26.071 15.891 
397 5 1  1.331 26.085 18.145 
398 5 1 -0.562 26.270 19.530 
399 5 1 48.321 24.392 19.642 
400 5 1 45.816 24.800 19.968 
401 5 1 43.326 25.530 19.833 
402 5 1 41.220 26.029 20.745 
403 5 1 39.460 26.268 22.549 
404 5 1 37.544 26.935 24.253 
405 5 1 36.015 27.899 26.074 
406 5 1 34.556 28.913 27.996 
407 5 1 32.948 30.034 29.734 
408 5 1 31.526 31.202 31.529 
409 5 1 30.380 32.361 33.504 
410 5 1 30.188 33.681 35.476 
411 5 1 31.239 35.407 37.061 
412 5 1 31.492 37.354 38.378 
413 5 1 29.524 38.619 38.644 
414 5 1 27.743 38.320 36.761 
415 5 1 26.410 38.973 34.963 
416 5 1 25.963 40.557 32.980 
417 5 1 25.784 43.145 33.177 
418 5 1 25.631  6.830 31.228 
419 5 1 25.692  8.620 29.377 
420 5 1 25.003  9.419 27.447 
421 5 1 23.378  8.963 25.498 
422 5 1 23.086  7.868 23.477 
423 5 1 23.353  5.866 21.708 
424 5 1 22.896 41.568 20.563 
425 5 1 22.004 39.222 19.740 
426 5 1 20.670 37.168 18.965 
427 5 1 19.425 35.099 18.134 
428 5 1 18.351 32.879 17.329 
429 5 1 18.088 30.567 18.348 
430 5 1 18.109 28.191 19.388 
431 5 1 18.929 26.102 20.604 
432 5 1 19.783 24.090 21.966 
433 5 1 20.372 22.221 23.553 
434 5 1 20.393 20.417 25.397 
435 5 1 21.681 18.203 25.994 
436 5 1 22.958 15.928 26.493 
437 5 1 24.826 14.753 27.014 
438 5 1 26.928 15.140 27.853 
439 5 1 28.695 16.067 29.486 
440 5 1 30.417 16.895 31.183 
441 6 1 39.424 13.714 32.785 
442 6 1 37.549 13.896 34.093 
443 6 1 35.551 13.266 35.541 
444 6 1 33.268 12.877 34.631 
445 6 1 30.695 12.658 34.059 
446 6 1 28.290 12.624 33.352 
447 6 1 25.871 12.497 32.451 
448 6 1 23.630 12.021 31.439 
449 6 1 21.091 11.848 30.709 
450 6 1 18.766 11.702 29.735 
451 6 1 16.443 11.142 28.801 
452 6 1 14.019 10.957 28.076 
453 6 1 12.031 11.104 29.710 
454 6 1  9.471 11.336 28.973 
455 6 1  7.765 11.498 27.449 
456 6 1  6.748 11.529 25.120 
457 6 1  5.915 11.697 22.696 
458 6 1  4.868 12.795 20.902 
459 6 1  3.106 14.441 19.980 
460 6 1  2.631 16.843 20.915 
461 6 1  2.967 19.295 20.959 
462 6 1  3.021 20.601 18.743 
463 6 1  2.232 21.370 16.625 
464 6 1  0.355 21.752 14.870 
465 6 1 -0.708 22.799 13.049 
466 6 1 49.189 25.332 13.129 
467 6 1 48.332 27.062 14.504 
468 6 1 47.124 28.033 16.593 
469 6 1 45.720 29.491 17.627 
470 6 1 43.958 31.397 17.734 
471 6 1 42.418 33.511 18.128 
472 6 1 40.523 34.772 18.409 
473 6 1 38.549 34.543 19.573 
474 6 1 38.165 32.337 20.815 
475 6 1 39.736 31.505 22.806 
476 6 1 41.707 30.339 23.539 
477 6 1 44.125 29.620 23.151 
478 6 1 46.572 29.574 22.487 
479 6 1 48.677 30.205 21.232 
480 6 1 -0.141 31.283 20.536 
481 6 1 -0.835 33.777 20.770 
482 6 1 49.458 35.918 20.100 
483 6 1 49.134 37.729 18.370 
484 6 1 48.777 39.499 16.492 
485 6 1 47.615 41.027 15.285 
486 6 1 45.488 42.230 14.560 
487 6 1 43.410 43.500 13.699 
488 6 1 41.524  6.492 15.237 
489 6 1 39.832  7.565 16.849 
490 6 1 39.454  9.040 18.631 
491 6 1 40.375  9.428 20.775 
492 6 1 41.227  8.502 23.086 
493 6 1 41.952  7.342 25.277 
494 6 1 42.367 42.776 25.349 
495 6 1 44.410 41.417 24.824 
496 6 1 46.442 39.913 24.188 
497 6 1 48.690 38.571 23.872 
498 6 1  0.124 38.752 23.668 
499 6 1  2.361 39.956 24.097 
500 6 1  4.506 41.173 24.649 
501 6 1  6.172 42.808 25.818 
502 6 1  7.956  6.382 26.825 
503 6 1  9.896  7.713 25.809 
504 6 1 12.117  8.107 25.557 
505 6 1 14.423  6.992 25.834 
506 6 1 16.953  6.387 25.953 
507 6 1 18.890  6.834 27.773 
508 6 1 19.029  7.279 30.122 
509 6 1 16.700  7.098 31.069 
510 6 1 14.441  7.222 32.336 
511 6 1 12.623  8.613 33.166 
512 6 1 12.439  8.980 35.711 
513 6 1 12.561  7.010 37.347 
514 6 1 13.370  5.960 39.357 
515 6 1 14.738 43.910 41.472 
516 6 1 15.840  6.091 43.791 
517 6 1 15.631  6.042 46.147 
518 6 1 15.679 43.455 48.316 
519 7 1 15.498 20.140 46.978 
520 7 1 14.089 20.573 45.255 
521 7 1 12.437 20.516 43.562 
522 7 1 10.816 20.419 41.736 
523 7 1  9.405 20.161 39.845 
524 7 1  8.739 19.328 37.533 
525 7 1  7.620 19.378 35.503 
526 7 1  5.990 20.151 33.661 
527 7 1  4.524 21.058 31.739 
528 7 1  3.785 21.797 29.682 
529 7 1  3.353 19.980 27.939 
530 7 1  3.279 17.826 26.424 
531 7 1  5.091 16.851 24.894 
532 7 1  6.958 16.264 23.184 
533 7 1  9.152 16.067 21.788 
534 7 1 11.267 17.008 21.393 
535 7 1 13.422 18.381 21.641 
536 7 1 15.604 19.783 21.385 
537 7 1 16.299 20.504 23.561 
538 7 1 16.009 20.829 25.810 
539 7 1 14.338 19.903 27.578 
540 7 1 12.316 19.395 26.585 
541 7 1 11.782 16.830 26.504 
542 7 1 10.853 14.439 26.010 
543 7 1 11.504 12.624 24.273 
544 7 1 12.735 11.900 22.298 
545 7 1 14.420 11.934 20.399 
546 7 1 15.684 14.073 19.697 
547 7 1 17.144 16.036 19.603 
548 7 1 18.325 18.081 19.307 
549 7 1 19.574 19.766 17.875 
550 7 1 21.060 21.381 17.417 
551 7 1 22.272 23.518 18.228 
552 7 1 23.368 25.754 19.028 
553 7 1 24.488 27.946 19.823 
554 7 1 24.683 27.985 22.230 
555 7 1 25.546 27.354 24.500 
556 7 1 26.635 26.691 26.715 
557 7 1 27.827 26.485 29.011 
558 7 1 28.126 26.390 31.359 
559 7 1 27.381 27.227 33.799 
560 7 1 25.930 27.208 35.673 
561 7 1 23.437 27.539 35.505 
562 7 1 20.961 28.124 35.621 
563 7 1 18.999 26.756 34.728 
564 7 1 16.528 27.383 34.913 
565 7 1 13.976 27.865 35.073 
566 7 1 11.908 26.500 35.862 
567 7 1 10.012 25.446 37.103 
568 7 1  8.111 23.896 38.058 
569 7 1  5.617 24.650 38.224 
570 7 1  3.695 23.675 36.785 
571 7 1  1.536 25.149 36.545 
572 7 1  0.471 27.059 36.792 
573 7 1 -0.870 27.099 38.622 
574 7 1 48.383 27.598 40.304 
575 7 1 47.361 29.072 42.203 
576 7 1 46.141 30.497 43.933 
577 7 1 44.810 32.016 45.469 
578 7 1 43.391 33.450 46.899 
579 7 1 41.687 35.065 46.631 
580 7 1 39.505 35.499 45.377 
581 7 1 37.484 36.094 43.880 
582 7 1 34.992 36.114 44.460 
583 7 1 33.770 35.293 46.237 
584 7 1 33.387 34.056 48.435 
585 7 1 33.164 32.604 50.622 
586 7 1 32.025 31.199 52.080 
587 7 1 30.071 29.843 52.773 
588 7 1 28.425 28.157 53.642 
589 7 1 26.276 27.076 52.814 
590 7 1 23.791 26.587 52.884 
591 7 1 21.641 26.453 52.125 
592 7 1 20.612 24.207 51.396 
593 7 1 18.666 24.562 50.185 
594 7 1 16.089 25.098 50.078 
595 7 1 14.165 24.892 49.066 
596 7 1 12.362 23.940 47.954 
597 8 1 49.240 32.555 13.913 
598 8 1 50.259 31.896 11.593 
599 8 1  1.982 32.102 11.059 
600 8 1  3.615 30.156 10.934 
601 8 1  4.079 28.498  8.877 
602 8 1  4.104 28.150  6.558 
603 8 1  4.215 28.712  4.036 
604 8 1  4.573 29.370  1.571 
605 8 1  4.353 31.612  0.171 
606 8 1  3.784 33.851 -0.995 
607 8 1  3.376 36.249 -1.522 
608 8 1  2.856 38.745 -1.838 
609 8 1  1.552 40.649 -1.294 
610 8 1  1.183 42.184  0.332 
611 8 1  1.278  5.614  2.531 
612 8 1  0.195 42.882  4.636 
613 8 1 49.059 41.770  3.728 
614 8 1 47.717 39.686  2.839 
615 8 1 45.908 38.566  1.914 
616 8 1 43.495 39.013  1.269 
617 8 1 41.377 38.409  0.627 
618 8 1 41.357 36.573 -1.262 
619 8 1 41.137 35.264 -3.386 
620 8 1 40.975 34.661 -5.789 
621 8 1 39.280 34.646 -7.715 
622 8 1 40.154 34.990 53.064 
623 8 1 39.406 33.690 50.871 
624 8 1 38.601 32.237 48.900 
625 8 1 40.124 30.538 47.652 
626 8 1 41.552 28.705 46.484 
627 8 1 42.962 26.715 45.798 
628 8 1 44.869 24.908 45.296 
629 8 1 46.821 23.241 45.183 
630 8 1 47.081 21.497 43.219 
631 8 1 48.272 19.227 43.382 
632 8 1 49.484 17.741 44.445 
633 8 1 -0.192 17.230 46.737 
634 8 1  0.677 18.854 48.607 
635 8 1  1.164 21.053 49.341 
636 8 1  1.100 23.106 50.452 
637 8 1 -0.533 24.769 51.188 
638 8 1 48.549 26.280 52.430 
639 8 1 47.818 28.363 53.430 
640 8 1 47.689 30.834 53.842 
641 8 1 47.699 33.208 54.851 
642 8 1 49.414 35.000 54.443 
643 8 1  0.695 35.472 53.412 
644 8 1  2.984 35.665 52.468 
645 8 1  5.101 36.135 51.508 
646 8 1  7.140 34.508 51.661 
647 8 1  8.545 33.270 53.012 
648 8 1  9.908 31.917 54.301 
649 8 1 12.140 30.716 54.236 
650 8 1 14.427 29.476 54.164 
651 8 1 16.672 28.500 54.526 
652 8 1 17.834 28.690 52.561 
653 8 1 18.499 29.999 50.581 
654 8 1 20.640 30.496 49.835 
655 8 1 23.083 30.055 49.119 
656 8 1 25.496 29.537 48.490 
657 8 1 27.846 28.833 47.883 
658 8 1 30.218 28.026 46.989 
659 8 1 31.168 29.592 45.694 
660 8 1 31.564 31.518 44.656 
661 8 1 31.125 33.320 42.807 
662 8 1 29.777 33.098 40.659 
663 8 1 27.993 32.645 38.866 
664 8 1 26.079 31.981 39.999 
665 8 1 26.127 29.454 39.811 
666 8 1 26.566 26.792 39.757 
667 8 1 27.306 24.371 39.483 
668 8 1 25.924 22.213 39.612 
669 8 1 25.165 19.875 39.129 
670 8 1 23.743 18.119 39.399 
671 8 1 21.805 16.741 40.248 
672 8 1 19.805 15.367 41.256 
673 8 1 18.021 13.841 42.345 
674 8 1 16.268 12.166 43.415 
675 9 1 31.469 24.097 48.808 
676 9 1 32.857 23.830 46.919 
677 9 1 33.652 24.336 44.479 
678 9 1 34.291 24.370 41.913 
679 9 1 35.289 24.687 39.511 
680 9 1 36.782 24.261 37.737 
681 9 1 38.513 24.084 36.010 
682 9 1 40.249 25.651 35.763 
683 9 1 42.492 26.801 35.955 
684 9 1 44.770 27.934 35.922 
685 9 1 46.429 29.535 36.400 
686 9 1 48.201 31.024 37.419 
687 9 1 47.966 32.977 38.983 
688 9 1 46.887 34.127 40.682 
689 9 1 45.786 35.295 42.437 
690 9 1 47.569 35.997 44.198 
691 9 1 49.704 36.561 45.549 
692 9 1  1.040 36.510 46.998 
693 9 1  2.433 38.482 47.602 
694 9 1  2.374 39.682 49.884 
695 9 1  3.146 42.046 50.493 
696 9 1  3.928  6.316 51.567 
697 9 1  5.422  8.078 52.143 
698 9 1  7.876  7.302 51.872 
699 9 1 10.358  6.614 51.370 
700 9 1 12.635  7.776 51.756 
701 9 1 13.387  9.240 49.955 
702 9 1 13.547 11.281 48.291 
703 9 1 14.268 13.722 48.600 
704 9 1 15.310 15.221 46.782 
705 9 1 14.186 16.080 45.048 
706 9 1 12.878 16.079 42.784 
707 9 1 11.458 15.618 40.601 
708 9 1 10.435 15.280 38.254 
709 9 1  9.599 14.652 35.923 
710 9 1  8.790 14.347 33.558 
711 9 1  8.022 14.732 31.152 
712 9 1  8.762 16.820 30.695 
713 9 1  8.793 19.304 30.025 
714 9 1  8.542 21.538 28.736 
715 9 1  8.104 23.810 27.521 
716 9 1  8.122 26.022 26.144 
717 9 1  8.518 27.907 24.367 
718 9 1  9.292 29.386 22.358 
719 9 1  8.925 28.277 20.284 
720 9 1  8.155 26.204 18.861 
721 9 1  7.071 24.146 17.685 
722 9 1  7.928 21.981 18.069 
723 9 1  9.477 20.020 17.678 
724 9 1 11.998 20.158 16.946 
725 9 1 14.538 20.344 16.600 
726 9 1 16.020 19.937 14.581 
727 9 1 17.650 19.786 12.663 
728 9 1 19.444 19.519 10.872 
729 9 1 20.408 18.901  8.757 
730 9 1 20.187 18.404  6.195 
731 9 1 19.717 17.996  3.694 
732 9 1 18.822 18.453  1.627 
733 9 1 17.329 19.715 -0.071 
734 9 1 15.912 20.532 -1.977 
735 9 1 14.410 20.322 -3.864 
736 9 1 13.083 19.286 -5.706 
737 9 1 11.422 18.007 56.012 
738 9 1  9.619 17.452 54.614 
739 9 1  7.461 17.878 53.391 
740 9 1  6.141 17.819 51.400 
741 9 1  5.701 16.789 49.049 
742 9 1  4.273 15.696 47.414 
743 9 1  3.160 14.632 45.636 
744 9 1  2.974 13.026 43.767 
745 9 1  2.460 11.849 41.486 
746 9 1  1.820 10.787 39.286 
747 9 1  1.350  9.735 36.948 
748 9 1  0.806  9.538 34.549 
749 9 1 -0.418 11.646 33.893 
750 9 1 -0.528 13.583 35.113 
751 9 1 -0.044 14.810 37.087 
752 9 1  0.225 16.254 38.758 
753 10 1 11.663 38.580 49.689 
754 10 1 11.804 40.135 47.668 
755 10 1 12.582 40.494 45.554 
756 10 1 13.976 39.587 43.541 
757 10 1 15.560 38.211 41.907 
758 10 1 16.740 35.940 42.144 
759 10 1 18.644 35.289 40.686 
760 10 1 20.418 34.239 39.128 
761 10 1 21.939 32.916 37.467 
762 10 1 23.016 32.411 35.415 
763 10 1 25.164 33.570 34.804 
764 10 1 25.839 34.193 32.477 
765 10 1 27.636 35.892 31.770 
766 10 1 29.340 37.501 31.991 
767 10 1 30.659 39.298 33.266 
768 10 1 31.471 41.439 33.735 
769 10 1 31.441 43.931 33.136 
770 10 1 30.290  8.020 32.042 
771 10 1 30.011  9.552 30.350 
772 10 1 30.527 10.503 28.024 
773 10 1 30.847 12.146 26.130 
774 10 1 31.262 14.065 24.460 
775 10 1 31.341 16.344 25.516 
776 10 1 31.232 18.489 26.942 
777 10 1 33.100 19.467 27.944 
778 10 1 35.318 19.133 29.240 
779 10 1 37.681 18.762 30.222 
780 10 1 39.982 18.114 30.902 
781 10 1 42.005 17.106 30.472 
782 10 1 43.833 15.983 29.155 
783 10 1 44.264 13.461 28.615 
784 10 1 43.938 11.246 29.196 
785 10 1 43.890  9.139 30.057 
786 10 1 44.545  6.702 29.913 
787 10 1 45.201 42.276 29.747 
788 10 1 47.469 41.355 28.970 
789 10 1 49.769 40.243 28.472 
790 10 1  1.298 39.669 28.645 
791 10 1  3.584 38.940 29.715 
792 10 1  4.510 39.389 32.091 
793 10 1  3.885 37.867 34.107 
794 10 1  4.301 37.830 36.634 
795 10 1  4.873 38.617 38.635 
796 10 1  5.854 39.882 40.466 
797 10 1  7.034 39.978 42.742 
798 10 1  8.015 39.988 45.165 
799 10 1  6.830 38.955 47.191 
800 10 1  7.595 39.060 49.740 
801 10 1  7.756 40.030 51.840 
802 10 1  6.951 41.499 53.770 
803 10 1  4.792 41.338 55.155 
804 10 1  2.624 41.355 -6.713 
805 10 1  0.671 42.970 56.154 
806 10 1 49.978  6.708 55.322 
807 10 1  0.329  8.914 54.857 
808 10 1  0.357 11.295 55.034 
809 10 1 -0.413 13.727 55.778 
810 10 1 -0.930 16.083 -6.505 
811 10 1 -1.023 18.344 -5.163 
812 10 1 -0.610 20.267 -3.677 
813 10 1 -0.216 22.375 -2.186 
814 10 1  0.615 23.826 -0.414 
815 10 1  2.085 24.833  1.536 
816 10 1  3.667 23.648  3.257 
817 10 1  4.971 22.564  5.195 
818 10 1  6.474 23.521  6.963 
819 10 1  7.509 24.990  8.511 
820 10 1  8.590 26.552  9.765 
821 10 1 10.392 28.162 10.396 
822 10 1 12.253 29.746 11.285 
823 10 1 14.125 31.464 12.188 
824 10 1 16.058 32.859 11.077 
825 10 1 18.708 33.027 11.601 
826 10 1 19.864 34.442 13.383 
827 10 1 20.790 36.721 12.847 
828 10 1 22.024 38.636 14.180 
829 10 1 22.988 40.732 15.368 
830 10 1 24.183 42.712 16.446 
831 11 1 44.027 24.534 15.039 
832 11 1 45.961 22.932 14.866 
833 11 1 46.031 20.380 14.478 
834 11 1 45.637 17.819 14.520 
835 11 1 44.456 15.487 14.982 
836 11 1 43.381 13.266 15.250 
837 11 1 42.830 11.114 14.693 
838 11 1 45.031  9.935 13.955 
839 11 1 47.300  8.953 13.292 
840 11 1 49.096  7.635 13.931 
841 11 1  0.188  6.793 15.062 
842 11 1  2.512  6.821 15.956 
843 11 1  5.051  7.520 15.919 
844 11 1  5.385  9.809 16.132 
845 11 1  4.890 12.291 15.377 
846 11 1  2.655 12.828 15.041 
847 11 1  1.319 14.814 16.089 
848 11 1 -0.278 16.829 16.334 
849 11 1 49.130 18.985 16.878 
850 11 1 49.101 19.791 19.271 
851 11 1 49.116 20.575 21.746 
852 11 1 48.736 21.050 24.203 
853 11 1 48.445 21.403 26.721 
854 11 1 47.646 20.656 28.790 
855 11 1 46.541 19.870 30.734 
856 11 1 45.425 19.996 32.995 
857 11 1 43.946 20.377 35.134 
858 11 1 42.150 20.777 37.050 
859 11 1 40.412 21.191 38.912 
860 11 1 40.872 21.591 41.489 
861 11 1 41.603 21.592 44.004 
862 11 1 42.560 20.592 45.773 
863 11 1 43.522 18.564 47.166 
864 11 1 42.309 16.736 48.516 
865 11 1 41.649 15.235 50.473 
866 11 1 40.575 14.471 52.303 
867 11 1 38.638 13.414 53.568 
868 11 1 37.838 12.351 55.464 
869 11 1 37.717 11.191 -5.448 
870 11 1 37.536 10.287 -3.087 
871 11 1 37.158  9.360 -0.737 
872 11 1 36.269  8.595  1.396 
873 11 1 35.357  8.352  3.493 
874 11 1 34.971  8.779  6.019 
875 11 1 34.467  9.169  8.545 
876 11 1 33.403  9.876 10.743 
877 11 1 31.928 10.226 12.744 
878 11 1 30.586 10.026 14.907 
879 11 1 28.804 10.502 16.394 
880 11 1 26.455 11.356 16.826 
881 11 1 24.866 12.459 15.144 
882 11 1 24.388 13.371 12.960 
883 11 1 24.570 13.144 10.604 
884 11 1 24.703 11.849  8.380 
885 11 1 24.430  9.319  7.900 
886 11 1 23.303  7.260  7.525 
887 11 1 21.956  5.630  8.509 
888 11 1 21.908 41.335  9.225 
889 11 1 24.054 40.278 10.143 
890 11 1 25.904 40.298 11.530 
891 11 1 27.299 41.277 13.456 
892 11 1 28.524 42.304 15.446 
893 11 1 30.164 43.470 16.708 
894 11 1 32.683  6.158 16.580 
895 11 1 34.882  7.396 16.836 
896 11 1 34.449  9.803 17.825 
897 11 1 33.208 11.209 19.013 
898 11 1 30.864 12.140 19.864 
899 11 1 28.754 13.621 20.320 
900 11 1 26.773 15.165 20.683 
901 11 1 24.739 16.579 21.394 
902 11 1 23.871 18.562 22.365 
903 11 1 23.639 20.869 21.388 
904 11 1 25.664 22.382 21.309 
905 11 1 27.696 23.802 20.863 
906 11 1 28.691 24.412 22.803 
907 11 1 29.870 23.773 25.030 
908 11 1 31.616 23.895 26.461 
909 12 1 32.253 39.811 48.541 
910 12 1 31.715 41.877 47.928 
911 12 1 30.211 43.733 47.977 
912 12 1 29.321  7.977 49.117 
913 12 1 27.978  9.762 48.889 
914 12 1 25.980 10.910 48.810 
915 12 1 23.890 12.177 49.446 
916 12 1 22.872 12.405 51.870 
917 12 1 21.940 13.050 54.192 
918 12 1 21.233 13.653 -6.636 
919 12 1 19.192 12.741 -5.280 
920 12 1 18.013 14.361 -3.999 
921 12 1 16.244 15.425 -2.592 
922 12 1 14.802 16.322 -0.764 
923 12 1 12.433 16.586 -0.658 
924 12 1 10.145 17.578 -1.425 
925 12 1  9.771 19.779 -2.851 
926 12 1 10.000 21.897 -4.243 
927 12 1  8.807 22.436 -6.187 
928 12 1  7.932 22.170 54.692 
929 12 1  7.035 22.085 52.288 
930 12 1  6.056 21.814 50.022 
931 12 1  5.268 21.592 47.556 
932 12 1  4.457 21.032 45.092 
933 12 1  3.171 20.387 42.931 
934 12 1  4.022 20.414 40.512 
935 12 1  4.370 18.416 38.913 
936 12 1  4.702 16.650 37.054 
937 12 1  4.671 14.691 35.444 
938 12 1  4.280 12.659 34.078 
939 12 1  4.148 10.619 32.421 
940 12 1  3.842  8.537 31.067 
941 12 1  3.725  6.481 29.558 
942 12 1  1.669  6.338 27.867 
943 12 1 -0.457  5.734 26.448 
944 12 1 48.147  6.275 25.801 
945 12 1 47.878  8.496 24.485 
946 12 1 45.971 10.207 24.435 
947 12 1 44.277 12.147 24.494 
948 12 1 42.634 14.081 24.167 
949 12 1 41.197 16.165 23.364 
950 12 1 39.550 18.123 23.351 
951 12 1 38.919 19.908 21.600 
952 12 1 38.190 21.062 19.462 
953 12 1 37.954 22.272 17.269 
954 12 1 35.972 23.668 16.407 
955 12 1 35.833 23.791 13.991 
956 12 1 35.473 21.323 13.071 
957 12 1 35.389 18.935 13.361 
958 12 1 35.903 18.550 15.873 
959 12 1 34.292 18.695 17.902 
960 12 1 34.759 17.962 20.328 
961 12 1 35.192 16.912 22.660 
962 12 1 35.758 15.958 24.966 
963 12 1 36.714 14.773 27.044 
964 12 1 35.294 14.385 29.203 
965 12 1 34.868 12.133 29.918 
966 12 1 34.650  9.823 30.462 
967 12 1 35.756  8.996 32.713 
968 12 1 37.365  8.542 34.268 
969 12 1 39.783  8.881 34.748 
970 12 1 41.830  9.174 35.889 
971 12 1 42.888  7.089 35.762 
972 12 1 44.233 43.154 34.628 
973 12 1 45.554 41.141 33.598 
974 12 1 46.660 39.108 32.543 
975 12 1 49.142 38.324 32.415 
976 12 1 50.011 36.272 31.099 
977 12 1  0.109 34.311 29.575 
978 12 1  1.365 34.589 27.350 
979 12 1  3.049 34.791 25.380 
980 12 1  3.812 35.277 23.127 
981 12 1  3.558 36.024 20.636 
982 12 1  2.971 36.538 18.254 
983 12 1  2.278 36.409 15.726 
984 12 1  2.198 36.818 13.436 
985 12 1  2.742 38.150 11.327 
986 12 1  3.037 39.498  9.123 