LAMMPS data file generated by aa2cg.

2000 atoms
1 atom types
1975 bonds
1 bond types
1950 angles
1 angle types
1925 dihedrals
1 dihedral types

 0.000 54.354 xlo xhi
 0.000 49.107 ylo yhi
 0.000 46.126 zlo zhi

Masses

1 24.022

Atoms # molecular

1 1 1 46.404 22.409 45.476 
2 1 1 37.386  7.726 26.660 
3 2 1 10.243 17.155 10.628 
4 2 1 10.158 10.344  2.804 
5 3 1  5.985 47.181 32.444 
6 3 1 10.533 34.746  9.676 
7 4 1  7.056 43.498 36.039 
8 4 1 45.438  4.072 23.219 
9 5 1 33.035 32.895 11.148 
10 5 1 23.516 18.098 40.192 
11 6 1 43.167 12.838  5.588 
12 6 1 40.965 44.582 21.468 
13 7 1 50.117 31.597  2.398 
14 7 1 25.033 25.929 25.404 
15 8 1  8.663 30.769 28.518 
16 8 1 28.505 40.677  2.921 
17 9 1  0.117 33.160  5.477 
18 9 1  0.591  7.980 36.648 
19 10 1 19.540 31.264 47.493 
20 10 1 50.005 19.175 28.522 
21 11 1 36.103  8.154 40.632 
22 11 1 13.082 41.408 12.279 
23 12 1 27.191  3.261 11.631 
24 12 1 20.591  6.139 27.687 
25 13 1 -1.503  4.905 14.281 
26 13 1 27.697 44.249 39.849 
27 14 1 25.029 13.817 18.521 
28 14 1 23.973 43.910 42.060 
29 15 1 36.002 20.615 31.880 
30 15 1 31.295 23.408 44.939 
31 16 1 45.800  5.957  2.105 
32 16 1 48.941 37.639 14.118 
33 17 1 38.247 30.364 19.322 
34 17 1 12.551 11.883 24.027 
35 18 1 40.308 19.027  9.383 
36 18 1  0.470 16.501 30.447 
37 19 1 34.969 13.170 47.281 
38 19 1 38.658 45.759  3.931 
39 20 1 51.650 13.448 43.369 
40 20 1 47.099 13.249 20.203 
41 21 1  0.531 35.245 22.198 
42 21 1 41.401 41.633 29.217 
43 22 1 35.533 39.194 29.381 
44 22 1 29.472 31.929 44.962 
45 23 1 44.781 34.100 39.365 
46 23 1 24.266  6.589 37.603 
47 24 1 16.891 43.436  7.332 
48 24 1 11.841 46.280 17.069 
49 25 1 50.149 28.158 44.812 
50 25 1 46.086 24.297 37.245 
51 1 1 47.623 23.989 44.151 
52 1 1 48.399 25.021 42.172 
53 1 1 49.274 26.327 40.334 
54 1 1 50.800 27.591 38.797 
55 1 1 52.081 28.947 37.087 
56 1 1 -1.295 30.327 35.089 
57 1 1 -1.294 30.472 32.520 
58 1 1  0.815 30.256 31.092 
59 1 1  2.997 30.424 29.850 
60 1 1  4.119 32.804 29.249 
61 1 1  4.368 35.141 29.343 
62 1 1  3.994 37.504 30.033 
63 1 1  3.466 39.258 28.252 
64 1 1  2.961 39.854 26.074 
65 1 1  0.944 38.754 25.762 
66 1 1 -1.572 38.505 25.676 
67 1 1 50.609 37.475 25.609 
68 1 1 48.812 35.647 25.352 
69 1 1 49.664 33.747 24.059 
70 1 1 51.139 32.224 22.438 
71 1 1 -1.992 30.486 20.943 
72 1 1 -1.553 28.349 20.031 
73 1 1 -2.261 26.004 19.026 
74 1 1 -3.102 24.065 17.724 
75 1 1 50.093 22.033 16.642 
76 1 1 49.951 19.718 16.559 
77 1 1 50.762 17.280 16.910 
78 1 1 51.235 14.753 17.526 
79 1 1 51.484 12.309 18.327 
80 1 1 -0.650 11.600 19.277 
81 1 1  1.641 11.183 20.450 
82 1 1  3.889 11.549 21.663 
83 1 1  5.058 10.820 23.872 
84 1 1  5.508 10.019 26.369 
85 1 1  6.496  8.827 28.370 
86 1 1  7.613  7.775 30.458 
87 1 1  8.955  6.866 32.421 
88 1 1 10.251  6.130 34.509 
89 1 1 11.284  5.541 36.825 
90 1 1 12.048  4.987 39.241 
91 1 1 12.999  4.343 41.638 
92 1 1 12.160  5.346 44.005 
93 1 1 10.990  6.083 46.239 
94 1 1 12.185  6.319  2.396 
95 1 1 13.322  6.910  4.612 
96 1 1 12.552  8.426  6.293 
97 1 1 11.830 10.543  7.494 
98 1 1 11.646 12.907  6.560 
99 1 1 11.327 15.278  5.634 
100 1 1  9.125 15.767  5.453 
101 1 1  8.833 15.221  2.937 
102 1 1  8.591 14.659 46.587 
103 1 1  8.032 14.112 44.166 
104 1 1  7.276 13.881 41.643 
105 1 1  5.688 12.257 40.380 
106 1 1  3.616 11.055 40.220 
107 1 1  1.451  9.731 40.543 
108 1 1 -0.560  8.331 41.381 
109 1 1 -2.299  7.837 42.875 
110 1 1 49.998  8.089 43.999 
111 1 1 47.874  9.128 44.720 
112 1 1 45.693 10.319 45.224 
113 1 1 43.782 11.953 45.697 
114 1 1 41.826 13.611 45.882 
115 1 1 39.999 15.359 46.127 
116 1 1 37.988 16.430 45.584 
117 1 1 35.714 17.202 44.454 
118 1 1 33.637 18.209 43.206 
119 1 1 31.818 19.088 41.726 
120 1 1 30.443 18.629 39.781 
121 1 1 31.004 18.671 37.252 
122 1 1 31.601 18.566 34.710 
123 1 1 33.347 16.860 33.996 
124 1 1 35.420 15.866 32.931 
125 1 1 37.190 14.377 31.757 
126 1 1 37.999 12.277 31.152 
127 1 1 38.821 10.182 30.604 
128 1 1 38.604  8.696 28.325 
129 2 1 10.340 19.565 11.268 
130 2 1 12.371 21.060 11.539 
131 2 1 14.451 22.402 12.182 
132 2 1 16.795 23.421 12.659 
133 2 1 18.999 24.555 13.016 
134 2 1 21.378 25.585 13.071 
135 2 1 23.945 26.088 13.066 
136 2 1 25.411 27.348 11.344 
137 2 1 26.837 28.848  9.776 
138 2 1 28.253 30.196  8.183 
139 2 1 29.350 30.655  6.249 
140 2 1 30.309 30.490  3.912 
141 2 1 30.169 28.527  2.241 
142 2 1 29.215 27.888 46.194 
143 2 1 27.057 27.670 44.992 
144 2 1 24.510 27.419 44.347 
145 2 1 22.595 27.367 42.958 
146 2 1 21.011 27.287 40.928 
147 2 1 19.059 27.081 39.341 
148 2 1 17.677 28.778 38.074 
149 2 1 16.092 30.123 36.557 
150 2 1 15.428 31.439 34.481 
151 2 1 14.707 33.320 33.316 
152 2 1 13.830 35.728 33.514 
153 2 1 13.796 37.941 32.883 
154 2 1 16.078 38.360 33.326 
155 2 1 18.469 37.998 34.238 
156 2 1 18.981 35.655 34.778 
157 2 1 19.583 33.512 35.468 
158 2 1 21.186 31.912 36.698 
159 2 1 22.929 30.419 37.806 
160 2 1 24.748 28.702 38.348 
161 2 1 26.404 26.862 39.058 
162 2 1 28.688 26.911 40.337 
163 2 1 30.921 27.192 41.472 
164 2 1 32.832 27.478 42.971 
165 2 1 34.165 28.029 44.864 
166 2 1 34.440 29.349 47.046 
167 2 1 35.762 30.440  2.541 
168 2 1 37.962 30.886  3.716 
169 2 1 40.180 31.320  4.985 
170 2 1 42.399 31.311  6.307 
171 2 1 44.031 33.300  6.764 
172 2 1 44.731 35.236  7.465 
173 2 1 44.581 37.309  8.985 
174 2 1 43.163 37.315 11.104 
175 2 1 43.613 37.432 13.559 
176 2 1 44.483 37.118 15.774 
177 2 1 45.958 36.276 17.642 
178 2 1 47.545 34.244 17.463 
179 2 1 49.334 32.458 17.485 
180 2 1 50.015 30.477 16.499 
181 2 1 48.437 28.467 16.176 
182 2 1 47.002 26.280 15.628 
183 2 1 45.539 25.326 13.647 
184 2 1 44.180 24.302 11.607 
185 2 1 43.456 23.805  9.164 
186 2 1 42.782 23.474  6.722 
187 2 1 42.150 22.891  4.277 
188 2 1 41.762 22.281  1.753 
189 2 1 42.599 20.158 46.708 
190 2 1 43.354 18.227 45.133 
191 2 1 44.184 16.711 43.345 
192 2 1 45.709 15.870 41.819 
193 2 1 47.961 15.915 40.510 
194 2 1 50.272 16.490 39.392 
195 2 1 -1.981 17.302 38.173 
196 2 1  0.006 18.201 36.760 
197 2 1  1.814 18.168 34.852 
198 2 1  3.782 17.761 33.744 
199 2 1  6.282 17.121 34.071 
200 2 1  7.468 16.272 36.272 
201 2 1  9.609 17.198 37.549 
202 2 1 10.862 15.901 39.517 
203 2 1 12.278 14.690 41.285 
204 2 1 12.673 13.269 43.011 
205 2 1 12.303 11.806 45.052 
206 2 1 12.196 10.668 47.383 
207 3 1  3.881 48.541 32.027 
208 3 1  2.881 49.258 29.733 
209 3 1  2.009  1.099 27.462 
210 3 1  1.352  1.311 25.081 
211 3 1  1.205  0.273 22.720 
212 3 1  2.779  0.872 20.823 
213 3 1  4.526  1.647 19.215 
214 3 1  6.554  2.438 17.666 
215 3 1  8.728  3.025 16.515 
216 3 1 10.120  4.112 14.914 
217 3 1 10.721  3.660 12.409 
218 3 1 11.628  3.238 10.071 
219 3 1 10.822  3.933  7.785 
220 3 1  9.394  4.948  6.417 
221 3 1  7.611  6.647  5.762 
222 3 1  7.187  9.018  6.442 
223 3 1  7.078 11.599  6.730 
224 3 1  5.517 13.276  7.591 
225 3 1  6.036 15.608  8.578 
226 3 1  5.177 17.844  7.578 
227 3 1  3.559 19.732  6.851 
228 3 1  1.544 20.339  6.237 
229 3 1 -0.879 19.596  6.143 
230 3 1 51.268 18.907  5.445 
231 3 1 49.152 18.642  3.981 
232 3 1 46.870 18.654  3.836 
233 3 1 44.667 18.056  4.247 
234 3 1 42.160 17.352  3.702 
235 3 1 40.225 16.376  4.437 
236 3 1 38.760 15.754  6.085 
237 3 1 37.002 17.004  7.648 
238 3 1 35.109 18.257  8.407 
239 3 1 32.852 19.545  8.284 
240 3 1 30.630 20.848  8.352 
241 3 1 28.285 20.862  8.657 
242 3 1 26.006 19.790  9.578 
243 3 1 25.394 17.214  9.956 
244 3 1 23.140 15.962  9.748 
245 3 1 20.723 14.813 10.033 
246 3 1 18.361 14.049 10.477 
247 3 1 15.996 13.396 10.976 
248 3 1 13.455 13.279 11.026 
249 3 1 11.295 13.346 11.880 
250 3 1  9.518 13.458 13.702 
251 3 1  7.521 13.495 15.365 
252 3 1  5.941 14.675 16.509 
253 3 1  4.199 16.290 17.313 
254 3 1  2.561 17.441 18.889 
255 3 1  1.506 19.394 19.797 
256 3 1  1.455 22.068 19.958 
257 3 1  1.677 24.183 20.887 
258 3 1  1.379 25.963 22.828 
259 3 1  1.523 27.631 24.789 
260 3 1  0.339 26.772 26.768 
261 3 1 -1.117 25.285 28.270 
262 3 1 -2.998 23.669 27.546 
263 3 1 48.961 24.041 28.459 
264 3 1 46.799 24.359 29.772 
265 3 1 44.662 22.906 29.899 
266 3 1 42.592 23.009 31.386 
267 3 1 40.164 22.828 32.212 
268 3 1 40.095 22.491 34.487 
269 3 1 40.393 23.175 36.940 
270 3 1 41.089 25.609 37.474 
271 3 1 42.806 27.257 37.590 
272 3 1 44.974 28.501 37.289 
273 3 1 46.465 29.465 39.051 
274 3 1 47.729 30.911 40.655 
275 3 1 48.388 32.225 42.471 
276 3 1 48.928 33.719 44.057 
277 3 1 50.320 35.350 45.339 
278 3 1 52.102 36.171 46.931 
279 3 1 -0.185 36.925  2.239 
280 3 1  1.981 37.443  3.451 
281 3 1  3.410 36.950  5.306 
282 3 1  4.352 35.923  7.388 
283 3 1  6.380 34.924  7.939 
284 3 1  8.843 34.909  8.102 
285 4 1  5.907 43.135 33.780 
286 4 1  5.011 42.629 31.378 
287 4 1  6.324 41.444 29.519 
288 4 1  7.758 40.303 27.748 
289 4 1  8.449 38.469 26.605 
290 4 1  7.918 36.302 25.306 
291 4 1  5.464 35.212 25.041 
292 4 1  3.129 34.187 25.095 
293 4 1  0.814 33.051 25.528 
294 4 1 -1.066 32.898 26.796 
295 4 1 -2.322 33.634 28.932 
296 4 1 50.365 34.230 30.592 
297 4 1 48.113 33.524 29.569 
298 4 1 46.869 32.038 28.357 
299 4 1 45.979 30.733 26.344 
300 4 1 45.501 28.713 25.153 
301 4 1 45.755 26.114 24.922 
302 4 1 46.011 23.555 25.231 
303 4 1 45.826 21.218 25.929 
304 4 1 45.613 19.069 27.149 
305 4 1 45.333 16.754 28.316 
306 4 1 47.234 15.309 29.411 
307 4 1 49.259 13.828 30.019 
308 4 1 50.405 12.302 31.431 
309 4 1 50.682 10.784 33.500 
310 4 1 48.928 10.930 35.327 
311 4 1 46.751  9.601 35.133 
312 4 1 44.483  9.186 34.523 
313 4 1 43.983 10.740 32.487 
314 4 1 42.997 12.010 30.357 
315 4 1 42.580 14.558 30.236 
316 4 1 41.903 16.656 31.065 
317 4 1 40.973 18.136 33.046 
318 4 1 39.065 17.558 34.596 
319 4 1 37.449 16.717 36.449 
320 4 1 35.959 15.709 38.146 
321 4 1 34.565 15.092 40.226 
322 4 1 35.552 13.888 42.084 
323 4 1 34.446 11.666 42.399 
324 4 1 32.671 10.426 42.313 
325 4 1 30.589  9.831 41.052 
326 4 1 28.322 10.331 40.039 
327 4 1 26.026 10.680 38.939 
328 4 1 25.834 12.213 37.212 
329 4 1 26.405 14.576 36.437 
330 4 1 26.665 17.030 35.744 
331 4 1 26.694 19.516 35.044 
332 4 1 27.179 21.985 34.435 
333 4 1 27.041 24.545 33.861 
334 4 1 27.536 26.965 34.852 
335 4 1 26.521 29.175 33.979 
336 4 1 26.746 31.600 35.047 
337 4 1 26.850 33.782 36.449 
338 4 1 24.907 35.645 36.237 
339 4 1 25.443 36.996 34.427 
340 4 1 26.532 36.832 32.164 
341 4 1 28.012 34.798 31.374 
342 4 1 29.539 32.792 30.466 
343 4 1 30.856 30.897 29.411 
344 4 1 31.527 29.088 27.726 
345 4 1 31.509 27.130 26.368 
346 4 1 30.202 25.036 25.760 
347 4 1 28.861 22.894 25.210 
348 4 1 27.732 20.651 25.192 
349 4 1 26.966 18.235 25.571 
350 4 1 25.569 16.147 25.897 
351 4 1 24.057 14.153 26.354 
352 4 1 22.661 12.033 26.915 
353 4 1 23.656 10.126 27.627 
354 4 1 25.499  8.796 28.227 
355 4 1 27.838  7.756 28.224 
356 4 1 30.261  6.864 28.153 
357 4 1 32.538  5.867 28.228 
358 4 1 34.763  4.316 28.011 
359 4 1 36.986  2.892 27.878 
360 4 1 39.304  3.729 27.026 
361 4 1 41.785  4.596 26.705 
362 4 1 43.582  4.109 25.000 
363 5 1 31.370 31.051 11.692 
364 5 1 29.436 30.437 12.971 
365 5 1 27.917 30.775 15.084 
366 5 1 28.749 32.483 16.879 
367 5 1 29.948 33.475 18.962 
368 5 1 31.547 34.566 20.305 
369 5 1 33.705 35.900 20.825 
370 5 1 35.837 35.601 21.458 
371 5 1 37.825 34.153 22.110 
372 5 1 39.873 32.668 22.751 
373 5 1 41.889 31.119 22.815 
374 5 1 41.919 28.521 22.507 
375 5 1 42.126 25.950 22.215 
376 5 1 42.147 23.807 21.150 
377 5 1 41.681 23.673 18.922 
378 5 1 43.292 21.885 17.986 
379 5 1 44.906 20.246 16.897 
380 5 1 45.659 20.310 14.423 
381 5 1 46.157 20.432 11.967 
382 5 1 46.660 20.335  9.419 
383 5 1 47.074 18.005  8.908 
384 5 1 48.016 15.642  8.556 
385 5 1 48.861 13.314  7.793 
386 5 1 49.629 11.073  6.738 
387 5 1 49.866 10.000  4.718 
388 5 1 50.682  9.787  2.246 
389 5 1 -1.175 10.016  1.211 
390 5 1  1.228 10.588 46.392 
391 5 1  2.117 12.831 45.468 
392 5 1  3.201 15.112 45.058 
393 5 1  3.781 17.599 44.359 
394 5 1  4.158 20.043 43.518 
395 5 1  3.274 22.122 42.959 
396 5 1  3.677 23.884 44.519 
397 5 1  4.569 26.036 45.619 
398 5 1  5.445 28.046 46.907 
399 5 1  7.450 29.651 46.794 
400 5 1  9.223 31.427 46.285 
401 5 1 10.786 33.354 45.669 
402 5 1 12.690 34.561 44.936 
403 5 1 15.205 35.134 44.557 
404 5 1 16.917 35.037 46.454 
405 5 1 18.518 35.257  2.319 
406 5 1 19.875 35.129  4.478 
407 5 1 21.314 34.343  6.441 
408 5 1 23.105 35.575  7.897 
409 5 1 24.181 34.533  9.884 
410 5 1 24.120 33.064 11.645 
411 5 1 23.068 31.522 13.368 
412 5 1 22.727 29.987 15.089 
413 5 1 23.160 28.046 16.576 
414 5 1 23.669 26.124 18.276 
415 5 1 23.993 24.282 20.082 
416 5 1 26.035 22.726 20.373 
417 5 1 28.395 22.505 20.766 
418 5 1 30.828 23.410 21.079 
419 5 1 33.132 24.651 21.005 
420 5 1 35.208 25.085 20.111 
421 5 1 37.013 25.437 18.315 
422 5 1 38.868 25.974 16.741 
423 5 1 40.845 27.089 16.350 
424 5 1 42.897 28.242 17.447 
425 5 1 43.466 30.517 17.900 
426 5 1 42.985 32.824 17.450 
427 5 1 41.526 33.350 15.352 
428 5 1 40.204 33.836 13.115 
429 5 1 38.918 33.206 11.220 
430 5 1 37.240 31.814  9.811 
431 5 1 35.805 30.204  8.352 
432 5 1 34.615 28.554  6.814 
433 5 1 33.442 26.649  5.402 
434 5 1 32.232 24.705  4.296 
435 5 1 30.743 22.925  3.317 
436 5 1 28.884 21.265  2.573 
437 5 1 27.950 19.798  1.096 
438 5 1 28.026 18.709 44.872 
439 5 1 27.326 17.878 42.693 
440 5 1 25.824 17.108 40.772 
441 6 1 45.236 13.650  5.037 
442 6 1 46.786 13.960  3.037 
443 6 1 48.400 14.242  1.048 
444 6 1 47.688 15.669 45.462 
445 6 1 48.870 17.801 44.795 
446 6 1 50.522 19.135 43.908 
447 6 1 -2.427 20.593 42.683 
448 6 1 -1.753 22.656 41.390 
449 6 1 -0.635 24.707 41.083 
450 6 1  1.314 25.865 40.909 
451 6 1  3.818 26.004 40.820 
452 6 1  6.395 25.782 41.438 
453 6 1  8.798 25.922 42.035 
454 6 1 11.399 26.041 42.576 
455 6 1 12.701 24.390 44.075 
456 6 1 14.218 23.003 45.680 
457 6 1 15.797 21.722 47.289 
458 6 1 17.759 20.127 46.598 
459 6 1 18.628 17.767 47.407 
460 6 1 19.552 15.564  2.244 
461 6 1 20.442 13.205  2.381 
462 6 1 21.043 10.770  1.966 
463 6 1 21.167 10.079 45.894 
464 6 1 19.927 10.110 43.634 
465 6 1 19.725 10.002 41.330 
466 6 1 20.763 10.299 38.976 
467 6 1 21.439 11.844 37.454 
468 6 1 21.648 14.194 36.592 
469 6 1 21.762 16.682 35.691 
470 6 1 21.157 18.969 34.586 
471 6 1 22.714 20.900 33.879 
472 6 1 22.259 22.842 32.184 
473 6 1 21.873 24.798 30.517 
474 6 1 21.540 26.879 29.054 
475 6 1 21.499 29.115 27.694 
476 6 1 21.949 30.934 26.076 
477 6 1 22.978 31.781 24.174 
478 6 1 24.083 31.495 21.779 
479 6 1 24.752 32.133 19.589 
480 6 1 24.212 33.610 17.580 
481 6 1 23.503 35.345 15.914 
482 6 1 23.628 36.971 14.148 
483 6 1 23.913 38.667 12.667 
484 6 1 23.282 40.736 11.474 
485 6 1 22.021 42.690 10.150 
486 6 1 20.801 44.708  9.143 
487 6 1 19.481 46.915  8.481 
488 6 1 18.156 48.442 10.041 
489 6 1 17.065  0.981 11.711 
490 6 1 15.942  2.481 13.574 
491 6 1 14.707  3.871 15.439 
492 6 1 13.438  5.278 17.253 
493 6 1 11.972  5.472 19.009 
494 6 1 10.350  4.324 20.672 
495 6 1  8.742  3.049 22.185 
496 6 1  6.943  1.776 23.542 
497 6 1  5.891  0.862 25.457 
498 6 1  6.225 47.766 26.150 
499 6 1  6.494 45.483 26.056 
500 6 1  7.666 43.810 25.121 
501 6 1  9.203 42.444 23.742 
502 6 1 11.084 40.895 23.127 
503 6 1 13.013 39.142 23.126 
504 6 1 13.741 36.937 23.218 
505 6 1 13.564 34.421 22.952 
506 6 1 11.351 33.647 22.872 
507 6 1 10.334 33.007 20.700 
508 6 1  7.889 32.468 19.860 
509 6 1  6.411 33.931 18.360 
510 6 1  4.660 35.402 18.180 
511 6 1  3.075 37.039 19.185 
512 6 1  1.704 39.126 19.954 
513 6 1  0.056 40.579 21.378 
514 6 1 -1.634 42.031 22.785 
515 6 1 50.718 43.066 23.279 
516 6 1 48.313 43.788 23.016 
517 6 1 45.900 44.501 22.723 
518 6 1 43.399 44.650 22.166 
519 7 1 50.084 29.558  3.949 
520 7 1 50.824 27.552  4.615 
521 7 1 -1.566 25.970  5.424 
522 7 1  0.812 26.961  5.648 
523 7 1  3.046 27.959  5.702 
524 7 1  5.346 29.098  5.443 
525 7 1  7.685 30.131  5.580 
526 7 1  9.920 31.186  6.181 
527 7 1 11.786 29.855  6.263 
528 7 1 13.131 27.873  7.068 
529 7 1 15.159 27.286  8.461 
530 7 1 14.795 27.025 10.728 
531 7 1 13.249 27.131 12.575 
532 7 1 11.205 26.586 13.875 
533 7 1  9.391 24.836 13.467 
534 7 1  7.479 23.153 13.012 
535 7 1  5.609 21.464 12.400 
536 7 1  3.924 19.694 11.697 
537 7 1  2.140 17.977 10.900 
538 7 1  0.324 16.350 10.013 
539 7 1 -0.431 14.528  8.920 
540 7 1 -0.019 12.956  6.921 
541 7 1 -0.237 12.521  4.426 
542 7 1 -1.710 14.410  3.489 
543 7 1 -1.419 16.079  1.575 
544 7 1 -0.540 17.945 46.351 
545 7 1  0.390 20.119 47.314 
546 7 1  1.747 22.126  2.093 
547 7 1  3.004 24.206  3.066 
548 7 1  5.062 24.489  4.548 
549 7 1  7.104 24.572  6.106 
550 7 1  9.116 24.512  7.680 
551 7 1  9.257 26.310  9.254 
552 7 1  8.066 28.103 10.123 
553 7 1  6.857 30.426 10.231 
554 7 1  4.368 31.193 10.424 
555 7 1  1.918 31.953 10.858 
556 7 1 -0.427 32.911 11.300 
557 7 1 -2.313 33.426 12.555 
558 7 1 -1.859 34.553 14.791 
559 7 1 -1.347 35.909 16.921 
560 7 1 51.495 36.663 18.833 
561 7 1 49.732 37.899 19.799 
562 7 1 49.427 40.409 19.026 
563 7 1 49.152 42.929 18.348 
564 7 1 47.381 44.723 18.417 
565 7 1 45.143 46.071 18.200 
566 7 1 43.054 45.569 16.706 
567 7 1 40.818 45.332 15.472 
568 7 1 38.540 45.168 14.273 
569 7 1 36.290 44.646 13.718 
570 7 1 36.052 42.472 14.661 
571 7 1 36.825 40.654 15.635 
572 7 1 38.310 39.394 17.268 
573 7 1 39.693 38.044 18.776 
574 7 1 41.518 36.785 20.143 
575 7 1 43.622 35.754 21.340 
576 7 1 44.711 34.029 22.460 
577 7 1 46.062 32.132 21.599 
578 7 1 47.442 29.996 21.100 
579 7 1 46.695 27.597 20.569 
580 7 1 46.259 25.168 19.660 
581 7 1 47.143 23.121 20.902 
582 7 1 46.951 20.655 20.046 
583 7 1 46.942 18.973 21.673 
584 7 1 44.736 17.493 21.858 
585 7 1 42.484 17.881 23.091 
586 7 1 40.458 18.729 23.501 
587 7 1 38.908 20.512 23.595 
588 7 1 38.309 23.012 23.611 
589 7 1 37.625 25.524 24.019 
590 7 1 36.892 27.963 24.186 
591 7 1 36.093 30.380 24.156 
592 7 1 34.362 31.909 24.329 
593 7 1 31.876 32.641 24.179 
594 7 1 29.788 31.046 23.998 
595 7 1 27.927 29.316 24.081 
596 7 1 25.897 27.802 24.020 
597 8 1  7.237 30.870 26.338 
598 8 1  5.912 30.452 24.214 
599 8 1  4.777 29.538 22.109 
600 8 1  4.090 28.532 19.871 
601 8 1  5.188 28.912 17.693 
602 8 1  5.959 28.674 15.193 
603 8 1  4.858 27.469 13.148 
604 8 1  4.022 26.219 10.993 
605 8 1  2.542 24.696  9.968 
606 8 1  0.833 22.853 10.145 
607 8 1 -1.088 21.096 10.550 
608 8 1 -2.855 19.240 11.207 
609 8 1 49.936 17.392 12.228 
610 8 1 48.602 15.555 13.406 
611 8 1 46.482 15.763 14.950 
612 8 1 44.539 16.109 16.553 
613 8 1 42.969 16.356 18.578 
614 8 1 40.615 17.146 18.498 
615 8 1 38.365 18.146 18.953 
616 8 1 36.286 19.133 18.608 
617 8 1 34.094 20.149 17.592 
618 8 1 32.750 19.411 15.369 
619 8 1 31.537 18.463 13.303 
620 8 1 29.976 17.242 11.731 
621 8 1 29.306 15.381 10.729 
622 8 1 28.038 13.563  9.973 
623 8 1 25.998 12.509  8.761 
624 8 1 23.846 11.543  7.758 
625 8 1 21.504 10.780  7.269 
626 8 1 18.983 10.040  7.446 
627 8 1 17.510  8.381  8.112 
628 8 1 17.129  5.902  8.712 
629 8 1 16.065  3.986  8.131 
630 8 1 15.985  2.087  6.888 
631 8 1 16.816  0.061  5.555 
632 8 1 17.980  0.065  3.280 
633 8 1 19.082 -0.151  0.905 
634 8 1 18.744 49.088 44.703 
635 8 1 17.715  0.676 42.397 
636 8 1 17.005  1.579 40.190 
637 8 1 15.409  0.653 38.359 
638 8 1 14.784 48.404 36.550 
639 8 1 14.938 46.703 34.754 
640 8 1 15.228 44.963 32.860 
641 8 1 15.307 43.486 30.811 
642 8 1 14.496 42.304 28.893 
643 8 1 12.403 41.795 29.995 
644 8 1 10.999 41.469 31.764 
645 8 1 10.538 40.935 34.239 
646 8 1 10.326 40.145 36.634 
647 8 1  9.423 40.308 38.791 
648 8 1  7.825 40.304 40.505 
649 8 1  6.701 40.060 42.405 
650 8 1  6.482 39.876 45.049 
651 8 1  6.194 39.784 47.623 
652 8 1  6.296 40.047  4.052 
653 8 1  6.214 41.094  6.058 
654 8 1  5.410 43.238  7.195 
655 8 1  4.619 45.502  8.175 
656 8 1  3.928 46.941  9.850 
657 8 1  3.785 48.259 12.006 
658 8 1  4.425 47.646 14.454 
659 8 1  5.216 46.668 16.664 
660 8 1  7.026 46.760 18.526 
661 8 1  8.514 46.703 20.646 
662 8 1 10.193 47.539 21.975 
663 8 1 12.290 49.074 22.366 
664 8 1 13.434  0.931 20.261 
665 8 1 15.651  0.361 18.992 
666 8 1 18.040 48.948 18.152 
667 8 1 20.522 48.610 17.245 
668 8 1 22.291 47.693 15.942 
669 8 1 22.422 48.366 13.488 
670 8 1 23.906 47.021 11.827 
671 8 1 25.241 45.767  9.954 
672 8 1 26.768 44.831  8.127 
673 8 1 28.224 43.534  6.544 
674 8 1 29.632 42.322  4.637 
675 9 1 -1.117 31.638  7.094 
676 9 1 -2.414 30.052  8.623 
677 9 1 50.135 28.523  9.629 
678 9 1 48.190 28.220 10.721 
679 9 1 46.440 27.934  8.809 
680 9 1 45.290 27.907  6.537 
681 9 1 43.939 27.822  4.349 
682 9 1 42.614 27.746  2.141 
683 9 1 40.856 27.355 46.406 
684 9 1 39.256 29.144 45.594 
685 9 1 37.738 31.110 45.167 
686 9 1 37.638 33.234 44.551 
687 9 1 38.095 34.014 42.164 
688 9 1 38.771 35.318 39.977 
689 9 1 40.272 36.360 38.032 
690 9 1 41.656 38.567 38.137 
691 9 1 42.695 40.806 37.579 
692 9 1 44.071 42.972 37.083 
693 9 1 45.515 44.996 37.098 
694 9 1 47.307 46.797 37.680 
695 9 1 49.290 48.403 37.826 
696 9 1 50.830  0.852 36.879 
697 9 1 -2.228  2.045 34.964 
698 9 1 -1.300  3.342 32.861 
699 9 1 -0.871  4.803 30.774 
700 9 1 -0.375  5.774 28.431 
701 9 1  0.123  6.102 25.935 
702 9 1  0.640  5.984 23.336 
703 9 1  1.217  6.058 20.909 
704 9 1  1.706  6.192 18.473 
705 9 1  2.716  6.102 16.054 
706 9 1  3.412  5.580 13.608 
707 9 1  5.371  4.007 12.881 
708 9 1  6.761  2.067 12.180 
709 9 1  8.270  0.109 11.356 
710 9 1  9.348 46.876 10.915 
711 9 1  9.646 44.436 10.161 
712 9 1  9.882 42.098  9.215 
713 9 1 11.104 41.518  6.954 
714 9 1 12.898 41.268  5.119 
715 9 1 14.905 41.434  3.430 
716 9 1 16.042 39.764  1.875 
717 9 1 18.599 39.730  1.405 
718 9 1 21.053 39.333  1.348 
719 9 1 23.493 38.620  1.557 
720 9 1 24.581 36.485 46.709 
721 9 1 23.972 34.012 47.114 
722 9 1 24.244 32.657  3.129 
723 9 1 24.012 30.957  5.075 
724 9 1 23.118 30.117  7.217 
725 9 1 21.487 28.901  8.417 
726 9 1 20.170 26.738  8.330 
727 9 1 18.905 24.587  8.061 
728 9 1 17.413 22.538  7.442 
729 9 1 15.617 22.855  5.862 
730 9 1 13.462 23.488  4.596 
731 9 1 11.579 24.500  3.218 
732 9 1  9.758 25.325  1.563 
733 9 1  8.265 23.871 46.782 
734 9 1  7.247 21.854 46.485 
735 9 1  6.069 19.765 47.409 
736 9 1  5.243 17.567  2.329 
737 9 1  4.288 15.402  3.267 
738 9 1  4.529 13.159  3.202 
739 9 1  5.504 11.022  2.286 
740 9 1  6.771  8.830  1.865 
741 9 1  6.732  6.542  1.812 
742 9 1  6.627  4.348  1.402 
743 9 1  7.498  2.137 46.652 
744 9 1  8.435 -0.214 46.172 
745 9 1  8.716 47.171 44.615 
746 9 1  8.464 45.764 42.498 
747 9 1  7.680 46.157 40.137 
748 9 1  6.233 47.189 38.728 
749 9 1  4.445 48.927 38.155 
750 9 1  2.751  1.690 37.962 
751 9 1  0.900  3.490 38.130 
752 9 1  0.298  5.632 37.704 
753 10 1 18.897 30.957  3.898 
754 10 1 17.404 30.983  5.696 
755 10 1 15.649 31.873  7.368 
756 10 1 14.510 32.147  9.401 
757 10 1 13.153 31.373 11.468 
758 10 1 11.561 31.180 13.469 
759 10 1  9.341 31.878 13.540 
760 10 1  7.325 33.378 13.584 
761 10 1  5.159 34.860 13.377 
762 10 1  2.963 36.235 13.095 
763 10 1  0.817 37.503 12.437 
764 10 1 -0.250 39.530 13.498 
765 10 1 -1.343 41.689 14.473 
766 10 1 50.916 42.838 13.641 
767 10 1 50.223 45.359 14.114 
768 10 1 49.040 47.562 14.897 
769 10 1 49.085  0.945 14.171 
770 10 1 49.285  3.467 13.597 
771 10 1 47.190  5.162 13.770 
772 10 1 44.882  6.164 13.520 
773 10 1 42.498  7.132 13.062 
774 10 1 40.134  7.963 12.670 
775 10 1 37.876  7.726 12.195 
776 10 1 37.321  6.460 10.053 
777 10 1 36.181  5.345  8.032 
778 10 1 34.761  4.334  6.139 
779 10 1 33.307  3.467  4.210 
780 10 1 31.842  2.588  2.316 
781 10 1 30.376  1.655 46.538 
782 10 1 28.581  1.074 44.794 
783 10 1 27.415  1.440 42.832 
784 10 1 27.320  3.161 41.035 
785 10 1 28.160  5.063 42.068 
786 10 1 29.186  6.098 44.190 
787 10 1 30.530  6.905 46.290 
788 10 1 32.116  7.534  2.102 
789 10 1 34.124  8.249  3.437 
790 10 1 36.155  8.929  4.886 
791 10 1 38.150  9.345  6.513 
792 10 1 39.095 10.409  8.330 
793 10 1 39.065 12.344  9.708 
794 10 1 38.525 14.357 10.833 
795 10 1 38.312 15.792 12.659 
796 10 1 39.634 17.639 13.818 
797 10 1 40.451 19.840 14.055 
798 10 1 40.294 22.410 13.703 
799 10 1 38.868 23.303 12.053 
800 10 1 37.993 23.039  9.638 
801 10 1 36.780 22.621  7.446 
802 10 1 37.410 21.222  5.335 
803 10 1 37.364 19.671  3.341 
804 10 1 35.298 18.980  3.015 
805 10 1 33.197 17.959  4.045 
806 10 1 31.010 17.204  5.044 
807 10 1 28.577 16.658  5.665 
808 10 1 26.459 17.234  5.510 
809 10 1 24.225 17.977  5.443 
810 10 1 21.712 17.983  6.194 
811 10 1 19.297 17.858  6.887 
812 10 1 16.751 17.602  7.286 
813 10 1 14.591 18.100  6.688 
814 10 1 13.057 19.498  5.194 
815 10 1 11.817 19.421  2.909 
816 10 1 10.770 19.294 46.606 
817 10 1  9.728 19.167 44.287 
818 10 1  8.619 19.167 41.940 
819 10 1  9.084 20.835 40.157 
820 10 1  9.341 22.244 37.972 
821 10 1  8.626 23.937 36.518 
822 10 1  7.974 25.664 35.173 
823 10 1  7.171 27.013 33.221 
824 10 1  5.177 26.647 31.605 
825 10 1  4.922 25.493 29.343 
826 10 1  4.250 24.122 27.391 
827 10 1  3.543 22.454 25.507 
828 10 1  1.225 21.340 25.394 
829 10 1 -0.704 19.709 25.612 
830 10 1 -2.333 18.809 26.916 
831 11 1 34.419  7.505 38.784 
832 11 1 33.096  6.081 37.314 
833 11 1 32.293  4.022 35.882 
834 11 1 31.539  2.131 34.337 
835 11 1 30.538  0.134 33.071 
836 11 1 28.845 48.238 31.986 
837 11 1 26.537 48.043 30.881 
838 11 1 24.046 48.346 30.079 
839 11 1 23.253 48.577 27.660 
840 11 1 22.355  1.616 26.450 
841 11 1 21.433  1.900 24.051 
842 11 1 21.958  2.202 21.820 
843 11 1 23.396  2.730 19.762 
844 11 1 24.647  3.343 17.706 
845 11 1 24.972  4.633 15.781 
846 11 1 25.453  7.148 15.753 
847 11 1 23.934  9.014 16.757 
848 11 1 22.009  9.985 17.671 
849 11 1 19.584  9.580 18.464 
850 11 1 17.008  9.183 18.876 
851 11 1 15.253  8.613 20.274 
852 11 1 14.251  7.871 22.582 
853 11 1 14.252  5.724 23.344 
854 11 1 16.364  4.276 22.922 
855 11 1 17.449  4.611 20.948 
856 11 1 18.740  5.015 18.968 
857 11 1 19.313  4.417 16.528 
858 11 1 20.410  3.941 14.281 
859 11 1 21.041  3.507 11.796 
860 11 1 20.975  3.303  9.237 
861 11 1 21.795  1.448  7.585 
862 11 1 22.513 -0.242  5.806 
863 11 1 23.415 47.111  4.103 
864 11 1 24.611 45.335  2.494 
865 11 1 25.742 43.777 46.823 
866 11 1 26.674 42.322 44.893 
867 11 1 28.289 41.649 43.317 
868 11 1 30.742 41.705 44.305 
869 11 1 33.109 42.093 45.326 
870 11 1 34.869 43.647 44.276 
871 11 1 37.427 43.260 44.126 
872 11 1 39.921 42.703 43.482 
873 11 1 42.394 42.279 42.811 
874 11 1 44.825 42.116 41.735 
875 11 1 46.984 43.573 42.097 
876 11 1 48.935 44.960 42.835 
877 11 1 49.434 47.427 42.032 
878 11 1 50.591 49.181 43.530 
879 11 1 -1.790  0.736 42.392 
880 11 1 -0.665 48.363 40.620 
881 11 1  0.537 47.041 38.730 
882 11 1 -0.233 46.935 36.334 
883 11 1 -0.590 47.081 33.835 
884 11 1 -1.027 47.739 31.400 
885 11 1 -1.866 48.801 29.184 
886 11 1 50.996  1.181 28.116 
887 11 1 48.993  2.596 27.793 
888 11 1 47.763  4.440 27.113 
889 11 1 48.581  6.679 28.188 
890 11 1 50.107  8.586 27.360 
891 11 1 51.908 10.333 26.871 
892 11 1 -0.749 12.022 25.961 
893 11 1  0.975 13.909 25.328 
894 11 1  2.775 15.741 25.071 
895 11 1  4.404 17.551 24.543 
896 11 1  5.774 19.498 23.610 
897 11 1  7.117 21.632 22.581 
898 11 1  8.253 23.294 21.271 
899 11 1  9.356 25.112 19.841 
900 11 1 10.523 26.966 18.514 
901 11 1 11.646 29.094 17.700 
902 11 1 13.306 30.855 17.958 
903 11 1 14.649 32.738 18.425 
904 11 1 15.507 35.132 19.068 
905 11 1 16.596 37.442 19.796 
906 11 1 15.895 39.366 18.580 
907 11 1 15.333 40.451 16.216 
908 11 1 14.639 41.039 13.777 
909 12 1 26.968  5.772 11.629 
910 12 1 24.859  6.904 11.127 
911 12 1 22.383  7.338 11.542 
912 12 1 20.053  7.805 12.544 
913 12 1 17.733  8.364 12.833 
914 12 1 15.148  8.232 12.221 
915 12 1 12.792  8.449 11.127 
916 12 1 10.226  8.118 11.228 
917 12 1  7.924  8.069 11.578 
918 12 1  5.948  9.114 12.794 
919 12 1  4.289 11.023 13.355 
920 12 1  2.647 12.900 13.628 
921 12 1  0.585 14.523 13.691 
922 12 1  0.245 16.592 14.637 
923 12 1  0.178 19.068 14.885 
924 12 1 -0.394 21.507 15.254 
925 12 1  1.205 23.516 15.083 
926 12 1  3.244 24.410 15.679 
927 12 1  5.164 24.346 16.998 
928 12 1  6.065 22.314 17.795 
929 12 1  7.768 20.428 17.528 
930 12 1  8.799 18.684 18.498 
931 12 1  8.698 16.825 20.354 
932 12 1  8.305 14.788 21.967 
933 12 1  8.985 14.359 24.376 
934 12 1  9.870 13.487 26.665 
935 12 1 10.970 12.344 28.714 
936 12 1 12.071 11.326 30.783 
937 12 1 13.423 10.161 32.674 
938 12 1 14.490  9.386 34.927 
939 12 1 15.620  7.525 35.801 
940 12 1 16.693  5.145 35.732 
941 12 1 18.642  5.118 34.435 
942 12 1 19.916  6.530 33.199 
943 12 1 19.322  9.108 33.229 
944 12 1 18.245 11.566 33.336 
945 12 1 16.965 13.885 33.439 
946 12 1 15.506 14.768 31.473 
947 12 1 14.674 15.607 29.221 
948 12 1 14.015 16.546 26.752 
949 12 1 13.279 17.135 24.340 
950 12 1 12.544 17.508 21.873 
951 12 1 13.014 19.379 20.230 
952 12 1 13.188 20.723 18.108 
953 12 1 13.658 22.538 16.838 
954 12 1 15.217 24.578 16.874 
955 12 1 16.888 26.569 16.911 
956 12 1 18.306 28.090 15.735 
957 12 1 17.100 29.793 14.024 
958 12 1 18.386 31.279 12.315 
959 12 1 19.622 32.800 10.723 
960 12 1 19.410 35.259 10.803 
961 12 1 19.474 37.458 12.076 
962 12 1 19.413 39.431 13.684 
963 12 1 19.832 39.089 16.247 
964 12 1 20.699 38.211 18.570 
965 12 1 21.387 37.102 20.744 
966 12 1 23.683 36.884 21.922 
967 12 1 25.933 36.849 23.283 
968 12 1 28.092 36.575 24.508 
969 12 1 30.137 36.259 26.077 
970 12 1 32.333 35.699 27.637 
971 12 1 34.487 34.891 27.785 
972 12 1 36.659 34.853 26.921 
973 12 1 36.745 36.864 25.274 
974 12 1 35.326 38.697 24.989 
975 12 1 33.427 39.846 24.300 
976 12 1 31.222 40.544 24.247 
977 12 1 28.649 40.591 24.967 
978 12 1 26.099 41.072 25.249 
979 12 1 23.648 41.794 25.202 
980 12 1 22.477 43.297 26.923 
981 12 1 21.287 44.506 28.988 
982 12 1 19.003 45.764 29.064 
983 12 1 16.751 47.053 29.076 
984 12 1 17.437 49.252 29.612 
985 12 1 18.980  2.250 29.658 
986 12 1 20.307  4.566 29.694 