LAMMPS data file generated by aa2cg.

2000 atoms
1 atom types
1975 bonds
1 bond types
1950 angles
1 angle types
1925 dihedrals
1 dihedral types

 0.000 47.870 xlo xhi
 0.000 47.646 ylo yhi
 0.000 53.886 zlo zhi

Masses

1 24.022

Atoms # molecular

1 1 1 21.356  3.477 32.345 
2 1 1 12.206 11.954 -0.515 
3 2 1 14.977 39.996 42.746 
4 2 1 11.024 42.540 46.488 
5 3 1 39.984 39.058 24.101 
6 3 1 47.106 19.612 -0.482 
7 4 1 18.934 36.456 10.953 
8 4 1  9.382 38.177 29.259 
9 5 1  5.016 43.897  6.615 
10 5 1 46.162 20.001 35.209 
11 6 1 32.081  9.833 21.035 
12 6 1 13.377 22.386  7.912 
13 7 1 19.023 43.364 -1.574 
14 7 1 16.538 19.704  3.680 
15 8 1 16.955 31.465 22.546 
16 8 1 32.369 36.012 -1.217 
17 9 1 16.683 43.159 36.944 
18 9 1  0.181  7.893 33.085 
19 10 1 14.007 32.706  1.373 
20 10 1 10.705 39.987 41.175 
21 11 1 10.012 23.599 26.287 
22 11 1 30.497  5.024 24.543 
23 12 1 19.912 18.748  0.717 
24 12 1  1.652 42.074 23.210 
25 13 1 23.055 16.138 -1.182 
26 13 1 27.074  1.448 45.773 
27 14 1 14.927 30.377 27.894 
28 14 1  3.696 33.159 17.254 
29 15 1 21.395 27.569 21.884 
30 15 1 37.630 21.574 39.350 
31 16 1  0.925 41.065 28.496 
32 16 1 40.348 18.180 25.934 
33 17 1 33.723 41.247 50.370 
34 17 1 26.186 36.465 51.002 
35 18 1  6.713 34.116 31.523 
36 18 1 39.592  7.935  4.513 
37 19 1 24.727 19.941 21.078 
38 19 1  2.220  9.610 28.548 
39 20 1 32.698 20.394 38.682 
40 20 1 33.896 45.813 51.563 
41 21 1 10.448 47.720  2.977 
42 21 1 16.616 24.305  2.285 
43 22 1 38.580  1.210 14.483 
44 22 1 10.614 26.452 34.970 
45 23 1 24.975  3.662 23.240 
46 23 1 35.240 45.935 10.932 
47 24 1 34.619 33.633  5.845 
48 24 1 44.986  5.681 18.705 
49 25 1 47.680 43.348 47.317 
50 25 1 37.171 35.307 -1.299 
51 1 1 22.792  4.928 31.362 
52 1 1 23.742  7.417 31.309 
53 1 1 23.138  9.418 32.854 
54 1 1 22.728 11.294 34.723 
55 1 1 22.106 13.859 34.803 
56 1 1 23.456 15.653 34.192 
57 1 1 25.008 16.853 32.541 
58 1 1 25.491 16.418 30.109 
59 1 1 26.035 15.891 27.693 
60 1 1 26.716 15.163 25.300 
61 1 1 27.123 16.671 23.276 
62 1 1 29.422 17.495 22.326 
63 1 1 29.967 18.684 20.117 
64 1 1 29.436 19.919 18.125 
65 1 1 28.615 21.759 16.994 
66 1 1 28.187 24.195 16.664 
67 1 1 30.010 26.050 17.004 
68 1 1 30.400 27.485 19.099 
69 1 1 30.442 29.290 20.960 
70 1 1 29.905 30.202 22.974 
71 1 1 28.731 29.865 25.289 
72 1 1 26.867 28.293 25.448 
73 1 1 24.833 26.732 25.670 
74 1 1 22.945 25.216 26.466 
75 1 1 21.021 23.991 27.711 
76 1 1 19.238 22.816 28.883 
77 1 1 17.636 21.206 29.580 
78 1 1 18.978 19.303 30.612 
79 1 1 19.927 16.972 31.045 
80 1 1 18.958 14.903 32.314 
81 1 1 17.898 12.860 33.446 
82 1 1 16.077 11.269 32.678 
83 1 1 14.329  9.555 31.727 
84 1 1 12.122  8.180 31.501 
85 1 1 11.699  6.019 30.247 
86 1 1 12.487  3.946 29.443 
87 1 1 14.313  4.178 27.975 
88 1 1 15.586  3.968 25.746 
89 1 1 16.857  3.539 23.617 
90 1 1 18.049  4.040 21.733 
91 1 1 19.464  5.742 20.394 
92 1 1 20.805  7.306 18.912 
93 1 1 19.583  8.505 17.390 
94 1 1 18.336  8.940 15.216 
95 1 1 16.857  9.049 13.190 
96 1 1 15.591  7.136 12.126 
97 1 1 15.579  6.627  9.586 
98 1 1 16.230  7.402  7.513 
99 1 1 17.488  8.857  5.732 
100 1 1 18.857 10.093  3.925 
101 1 1 20.762 11.282  2.588 
102 1 1 22.985 12.228  1.443 
103 1 1 25.254 12.603  0.289 
104 1 1 27.520 12.392 -0.667 
105 1 1 29.239 14.164 -1.020 
106 1 1 30.297 14.905 50.660 
107 1 1 31.618 15.444 48.506 
108 1 1 34.080 16.292 48.286 
109 1 1 35.837 16.205 46.374 
110 1 1 38.439 16.727 46.682 
111 1 1 40.311 17.560 47.684 
112 1 1 41.289 18.135 49.744 
113 1 1 42.190 17.347 -1.921 
114 1 1 43.169 16.441  0.317 
115 1 1 44.337 15.858  2.539 
116 1 1 45.592 15.188  4.844 
117 1 1 47.297 14.342  6.540 
118 1 1  1.292 13.726  8.270 
119 1 1  3.336 13.041  9.748 
120 1 1  5.371 12.263 11.101 
121 1 1  6.877 10.561 11.830 
122 1 1  8.248  8.420 11.233 
123 1 1  9.589  6.922  9.600 
124 1 1 10.884  5.618  7.812 
125 1 1 12.076  5.418  5.741 
126 1 1 12.673  6.015  3.302 
127 1 1 13.108  8.257  2.208 
128 1 1 13.801 10.182  0.508 
129 2 1 14.835 42.169 43.332 
130 2 1 16.894 43.675 42.554 
131 2 1 18.467 45.338 41.439 
132 2 1 18.256 47.951 41.518 
133 2 1 17.942  2.836 41.235 
134 2 1 18.131  5.546 41.153 
135 2 1 20.097  7.050 42.089 
136 2 1 22.113  8.543 42.902 
137 2 1 24.128  9.107 41.407 
138 2 1 26.310  9.594 40.151 
139 2 1 28.657  9.374 40.303 
140 2 1 30.899  8.572 41.301 
141 2 1 33.120  8.110 42.445 
142 2 1 35.345  7.399 43.627 
143 2 1 37.305  6.310 44.868 
144 2 1 37.364  4.041 46.107 
145 2 1 36.295  2.038 46.658 
146 2 1 33.671  1.905 47.002 
147 2 1 32.019 47.559 46.684 
148 2 1 30.265 45.725 46.714 
149 2 1 28.423 43.888 46.924 
150 2 1 26.228 43.388 48.250 
151 2 1 24.260 42.287 49.493 
152 2 1 22.987 40.193 48.740 
153 2 1 21.656 37.910 48.719 
154 2 1 20.362 35.673 48.731 
155 2 1 19.713 33.686 47.868 
156 2 1 20.125 31.615 46.442 
157 2 1 22.502 30.892 45.613 
158 2 1 24.921 31.020 45.433 
159 2 1 27.122 32.120 45.691 
160 2 1 28.859 33.851 45.519 
161 2 1 30.743 34.086 47.239 
162 2 1 32.397 36.051 47.432 
163 2 1 34.685 36.390 47.566 
164 2 1 37.166 35.812 47.482 
165 2 1 37.661 33.718 46.401 
166 2 1 37.889 31.935 44.471 
167 2 1 39.559 31.944 42.557 
168 2 1 41.258 31.851 40.585 
169 2 1 42.997 31.630 38.742 
170 2 1 44.634 31.282 36.745 
171 2 1 46.358 31.712 34.991 
172 2 1 46.675 34.038 35.391 
173 2 1 47.146 36.296 36.497 
174 2 1 47.501 38.324 37.954 
175 2 1 47.997 40.663 39.082 
176 2 1 48.040 42.943 40.398 
177 2 1 47.885 45.186 41.747 
178 2 1  1.915 46.188 43.259 
179 2 1  4.070 46.281 44.116 
180 2 1  6.098 46.215 45.194 
181 2 1  7.787 46.752 46.893 
182 2 1  9.681 47.438 48.474 
183 2 1  8.948  1.101 50.268 
184 2 1  7.727  1.626 -1.434 
185 2 1  6.599 47.625  0.206 
186 2 1  5.969 45.574  1.531 
187 2 1  5.573 43.167  2.332 
188 2 1  5.370 40.636  2.658 
189 2 1  5.167 38.241  3.314 
190 2 1  4.839 36.055  4.467 
191 2 1  4.578 33.924  5.922 
192 2 1  5.474 33.750  8.291 
193 2 1  7.742 34.004  8.310 
194 2 1  9.823 35.306  7.483 
195 2 1  9.678 37.007  5.670 
196 2 1  9.732 38.939  4.072 
197 2 1 11.853 40.393  3.288 
198 2 1 13.062 42.675  3.960 
199 2 1 14.366 44.850  4.652 
200 2 1 14.350 47.083  3.347 
201 2 1 14.855 47.811  1.022 
202 2 1 15.381  0.568 -1.232 
203 2 1 16.320 47.475 50.437 
204 2 1 16.597 45.543 49.190 
205 2 1 15.293 43.574 48.405 
206 2 1 13.422 42.582 47.410 
207 3 1 37.820 40.351 24.413 
208 3 1 35.606 40.769 25.165 
209 3 1 33.181 40.479 25.846 
210 3 1 30.638 40.456 26.142 
211 3 1 28.051 40.715 25.807 
212 3 1 26.837 40.937 23.537 
213 3 1 25.837 41.928 21.341 
214 3 1 25.103 43.053 19.225 
215 3 1 23.267 42.070 17.721 
216 3 1 21.475 40.500 17.703 
217 3 1 20.934 38.340 19.090 
218 3 1 18.910 37.173 20.132 
219 3 1 18.482 36.320 22.399 
220 3 1 17.887 35.483 24.702 
221 3 1 17.523 34.636 27.147 
222 3 1 17.816 33.830 29.384 
223 3 1 19.430 32.876 31.169 
224 3 1 21.672 33.224 31.895 
225 3 1 24.151 33.907 32.111 
226 3 1 26.705 34.278 32.488 
227 3 1 29.257 34.102 32.722 
228 3 1 31.250 33.771 33.930 
229 3 1 32.584 33.357 36.137 
230 3 1 33.532 32.425 38.265 
231 3 1 34.665 31.495 40.335 
232 3 1 33.137 31.723 42.130 
233 3 1 32.866 34.046 42.642 
234 3 1 33.978 36.138 42.717 
235 3 1 36.475 35.853 42.153 
236 3 1 37.348 35.348 39.841 
237 3 1 37.013 35.247 37.535 
238 3 1 35.990 35.633 35.117 
239 3 1 35.110 35.846 32.609 
240 3 1 34.080 36.094 30.159 
241 3 1 31.641 36.568 29.445 
242 3 1 29.137 36.770 28.865 
243 3 1 26.642 36.729 28.574 
244 3 1 24.047 36.746 28.708 
245 3 1 22.617 36.949 26.589 
246 3 1 22.663 37.720 24.405 
247 3 1 23.942 37.537 22.263 
248 3 1 25.775 37.689 20.485 
249 3 1 26.586 38.504 18.426 
250 3 1 28.022 40.237 17.840 
251 3 1 29.760 41.499 17.102 
252 3 1 30.438 42.802 15.387 
253 3 1 30.320 44.727 13.768 
254 3 1 30.374 47.153 12.943 
255 3 1 30.485  1.958 12.189 
256 3 1 30.543  4.340 11.135 
257 3 1 30.759  6.773 10.319 
258 3 1 31.489  8.958  9.090 
259 3 1 30.897  9.936  6.741 
260 3 1 30.609 10.758  4.302 
261 3 1 31.147 13.167  3.733 
262 3 1 29.590 15.230  3.173 
263 3 1 30.395 17.394  3.910 
264 3 1 31.777 18.931  5.487 
265 3 1 33.290 20.474  6.991 
266 3 1 34.528 19.650  9.022 
267 3 1 36.001 18.982 10.735 
268 3 1 38.316 18.509 11.621 
269 3 1 40.527 18.056 12.776 
270 3 1 42.778 17.273 13.941 
271 3 1 44.747 16.114 15.057 
272 3 1 46.882 14.796 15.664 
273 3 1  1.422 13.725 15.949 
274 3 1  3.705 12.673 16.376 
275 3 1  6.014 11.923 16.933 
276 3 1  8.095 12.807 15.665 
277 3 1  9.524 14.264 14.450 
278 3 1  9.629 16.440 12.917 
279 3 1  8.222 16.866 10.824 
280 3 1  6.510 17.029  8.958 
281 3 1  4.769 17.216  7.075 
282 3 1  3.150 17.574  4.971 
283 3 1  1.703 17.640  2.814 
284 3 1  0.520 17.606  0.514 
285 4 1 17.187 38.143 10.176 
286 4 1 15.297 39.688  9.190 
287 4 1 13.309 41.163  8.377 
288 4 1 10.803 41.057  8.095 
289 4 1  8.383 40.321  7.903 
290 4 1  5.931 39.370  7.909 
291 4 1  3.635 38.276  8.005 
292 4 1  1.219 37.328  8.224 
293 4 1 47.302 36.784  6.365 
294 4 1 45.722 36.415  4.390 
295 4 1 44.356 36.161  2.261 
296 4 1 44.097 35.903  0.048 
297 4 1 45.229 35.267 -2.164 
298 4 1 46.451 33.998 49.770 
299 4 1 46.803 32.467 47.882 
300 4 1 46.260 29.976 47.883 
301 4 1 46.540 27.463 47.519 
302 4 1 46.836 24.845 47.476 
303 4 1 47.826 22.917 48.289 
304 4 1  1.977 21.974 49.589 
305 4 1  3.953 21.100 50.973 
306 4 1  5.476 20.924 -0.785 
307 4 1  6.470 20.355  1.504 
308 4 1  7.306 19.322  3.787 
309 4 1  8.996 19.040  5.709 
310 4 1 10.839 18.822  7.450 
311 4 1 12.440 18.281  9.404 
312 4 1 14.095 17.502 11.279 
313 4 1 14.726 14.973 11.665 
314 4 1 15.881 13.878 13.639 
315 4 1 16.169 13.229 15.894 
316 4 1 14.171 12.068 17.091 
317 4 1 12.125 11.121 18.504 
318 4 1 11.261 11.571 20.975 
319 4 1  9.031 10.976 22.031 
320 4 1  6.737 10.565 22.359 
321 4 1  4.171 10.631 21.837 
322 4 1  1.764 10.714 21.064 
323 4 1 47.514 10.953 19.599 
324 4 1 45.854 11.081 17.622 
325 4 1 44.201 11.310 15.701 
326 4 1 42.461 11.844 13.911 
327 4 1 40.704 12.518 12.212 
328 4 1 38.867 13.740 10.746 
329 4 1 37.374 14.771  8.919 
330 4 1 36.151 15.496  6.749 
331 4 1 35.030 16.105  4.514 
332 4 1 34.189 16.785  2.147 
333 4 1 33.821 16.324 -0.039 
334 4 1 35.977 15.589 -1.042 
335 4 1 38.074 14.948 -2.488 
336 4 1 38.563 12.524 50.699 
337 4 1 38.004 11.320 48.466 
338 4 1 36.701 11.015 46.580 
339 4 1 34.969 11.658 44.726 
340 4 1 34.012 12.621 42.571 
341 4 1 32.521 13.750 40.830 
342 4 1 30.436 14.123 39.876 
343 4 1 27.874 14.210 39.631 
344 4 1 25.275 14.122 39.419 
345 4 1 23.377 14.957 40.935 
346 4 1 23.100 13.458 42.704 
347 4 1 22.660 12.844 44.922 
348 4 1 20.892 11.643 45.925 
349 4 1 19.082  9.849 46.125 
350 4 1 17.218  8.061 45.988 
351 4 1 15.180  6.383 45.833 
352 4 1 13.160  4.861 45.933 
353 4 1 11.360  3.035 45.909 
354 4 1  9.779  2.475 43.897 
355 4 1  8.058  1.986 42.023 
356 4 1  5.938  1.699 40.682 
357 4 1  6.035 47.837 38.867 
358 4 1  6.793 46.863 36.577 
359 4 1  7.567 45.476 34.614 
360 4 1  7.421 43.552 33.350 
361 4 1  7.970 41.185 32.862 
362 4 1  8.431 39.346 31.417 
363 5 1  4.858 46.096  7.090 
364 5 1  4.247 48.480  6.558 
365 5 1  3.301  3.139  6.017 
366 5 1  2.410  5.406  5.293 
367 5 1  3.019  6.662  3.192 
368 5 1  3.315  8.373  1.234 
369 5 1  2.917  9.557 -0.988 
370 5 1  2.040 10.484 50.625 
371 5 1  1.433 11.461 48.373 
372 5 1  0.589 12.250 46.018 
373 5 1 48.539 12.591 43.803 
374 5 1  2.025 13.084 41.624 
375 5 1  3.806 11.480 40.612 
376 5 1  5.631 10.204 39.171 
377 5 1  7.347  9.061 37.665 
378 5 1  9.287  8.222 36.141 
379 5 1 11.311  7.102 35.597 
380 5 1 13.253  5.465 35.758 
381 5 1 15.098  3.555 35.842 
382 5 1 16.496  1.493 36.011 
383 5 1 18.387 47.871 35.904 
384 5 1 20.811 47.371 35.303 
385 5 1 22.656 46.075 34.937 
386 5 1 23.434 44.057 33.913 
387 5 1 24.131 41.972 33.136 
388 5 1 25.715 40.024 33.811 
389 5 1 27.629 38.341 34.395 
390 5 1 29.913 38.094 34.287 
391 5 1 32.333 38.978 33.917 
392 5 1 32.019 40.332 32.055 
393 5 1 30.355 41.822 30.369 
394 5 1 28.846 43.472 29.027 
395 5 1 27.127 45.217 28.180 
396 5 1 25.227 44.714 26.365 
397 5 1 23.142 43.763 25.099 
398 5 1 20.898 42.963 26.142 
399 5 1 18.702 42.171 27.347 
400 5 1 17.104 41.545 25.937 
401 5 1 15.943 41.069 23.717 
402 5 1 14.743 40.859 21.417 
403 5 1 15.745 40.707 19.025 
404 5 1 16.774 40.639 16.641 
405 5 1 15.596 41.256 14.360 
406 5 1 13.660 41.236 13.088 
407 5 1 11.173 40.793 12.550 
408 5 1  9.139 42.084 13.326 
409 5 1  6.652 42.022 12.424 
410 5 1  4.328 42.240 11.223 
411 5 1  2.008 42.078  9.975 
412 5 1 -0.186 41.640  8.839 
413 5 1 45.435 40.821  7.756 
414 5 1 43.250 39.835  6.714 
415 5 1 41.609 39.455  5.098 
416 5 1 41.068 39.430  2.683 
417 5 1 40.532 39.345  0.139 
418 5 1 42.048 40.594 -1.228 
419 5 1 44.440 41.799 -1.296 
420 5 1 46.776 42.712 -1.077 
421 5 1  1.060 43.772 -1.472 
422 5 1  0.915 45.965 -2.783 
423 5 1 48.446 48.202 49.898 
424 5 1 48.502  1.145 47.500 
425 5 1  2.434  2.595 46.174 
426 5 1  4.019  4.162 44.977 
427 5 1  5.824  5.277 43.565 
428 5 1  7.561  6.537 43.713 
429 5 1  9.591  7.678 43.800 
430 5 1  9.736 10.148 43.165 
431 5 1 10.115 11.339 40.999 
432 5 1 10.737 12.782 38.862 
433 5 1 10.042 15.186 38.295 
434 5 1 11.327 17.444 38.138 
435 5 1 10.427 18.479 36.116 
436 5 1  9.380 19.109 33.884 
437 5 1  7.844 17.574 33.057 
438 5 1  5.392 18.297 33.335 
439 5 1  3.014 18.956 33.736 
440 5 1  0.579 19.410 34.335 
441 6 1 33.151  9.218 23.299 
442 6 1 31.793  9.042 25.243 
443 6 1 30.478  8.974 27.176 
444 6 1 29.704  8.056 29.463 
445 6 1 28.705  7.052 31.638 
446 6 1 27.601  6.250 33.847 
447 6 1 29.154  5.707 35.845 
448 6 1 31.262  5.455 36.980 
449 6 1 33.654  5.572 37.738 
450 6 1 36.009  6.322 38.495 
451 6 1 38.242  6.989 39.545 
452 6 1 40.446  7.303 40.774 
453 6 1 42.638  6.592 39.571 
454 6 1 44.701  5.832 38.198 
455 6 1 46.365  5.012 36.505 
456 6 1 47.984  3.935 34.840 
457 6 1  1.560  2.488 33.228 
458 6 1  2.497  0.560 34.156 
459 6 1  2.612 46.924 36.023 
460 6 1  1.205 47.798 38.109 
461 6 1 47.487  1.229 39.921 
462 6 1 45.730  2.269 41.529 
463 6 1 43.820  3.320 42.986 
464 6 1 41.778  4.565 43.923 
465 6 1 41.550  6.952 44.820 
466 6 1 41.944  9.165 44.364 
467 6 1 43.242 10.930 43.123 
468 6 1 45.061 10.456 41.395 
469 6 1 46.960  9.936 39.767 
470 6 1  1.123  9.267 38.255 
471 6 1  2.078 10.732 36.449 
472 6 1  2.906 11.972 34.265 
473 6 1  3.476 13.361 32.139 
474 6 1  5.247 14.403 30.569 
475 6 1  7.015 15.880 29.238 
476 6 1  8.834 17.468 28.359 
477 6 1 10.654 18.819 28.742 
478 6 1 12.716 19.678 30.069 
479 6 1 14.440 17.988 31.155 
480 6 1 14.075 16.490 33.216 
481 6 1 14.190 15.206 35.497 
482 6 1 14.456 12.650 36.199 
483 6 1 14.374 10.180 36.970 
484 6 1 16.169  8.318 36.956 
485 6 1 17.197  7.113 35.407 
486 6 1 17.769  5.963 33.135 
487 6 1 17.605  7.010 30.757 
488 6 1 17.568  8.075 28.386 
489 6 1 17.528  8.845 25.843 
490 6 1 17.227  9.608 23.476 
491 6 1 16.666 11.241 21.940 
492 6 1 15.784 13.436 20.971 
493 6 1 15.319 15.901 20.172 
494 6 1 14.470 17.528 18.636 
495 6 1 14.494 18.296 16.511 
496 6 1 15.227 19.835 14.881 
497 6 1 15.287 21.671 13.299 
498 6 1 15.001 23.599 11.993 
499 6 1 13.931 25.978 11.672 
500 6 1 12.906 28.306 11.348 
501 6 1 12.173 30.766 11.478 
502 6 1 10.556 32.570 11.592 
503 6 1  8.075 31.990 12.272 
504 6 1  5.482 31.597 12.624 
505 6 1  3.566 30.248 11.411 
506 6 1  1.742 31.072  9.890 
507 6 1  1.007 31.685  7.787 
508 6 1  0.519 31.837  5.373 
509 6 1 47.799 32.212  2.934 
510 6 1 48.615 32.741  0.801 
511 6 1  2.506 33.025 -1.009 
512 6 1  5.120 33.063 -0.614 
513 6 1  6.227 31.412  0.921 
514 6 1  6.955 30.383  3.281 
515 6 1  7.511 29.420  5.669 
516 6 1  9.116 28.432  7.007 
517 6 1 10.771 26.779  7.507 
518 6 1 12.210 24.577  7.554 
519 7 1 19.143 41.245 50.864 
520 7 1 17.560 39.269 50.622 
521 7 1 16.087 37.289 50.346 
522 7 1 14.879 35.015 49.841 
523 7 1 14.078 32.563 49.557 
524 7 1 13.517 30.128 48.986 
525 7 1 12.985 27.720 48.268 
526 7 1 12.374 25.472 47.110 
527 7 1 13.503 24.601 44.998 
528 7 1 14.918 23.638 43.074 
529 7 1 16.828 23.102 41.385 
530 7 1 18.692 22.966 39.663 
531 7 1 20.320 22.449 37.629 
532 7 1 21.572 21.902 35.523 
533 7 1 23.070 21.121 33.619 
534 7 1 24.144 21.630 31.732 
535 7 1 24.958 23.586 30.141 
536 7 1 26.347 25.433 30.175 
537 7 1 28.022 26.949 31.397 
538 7 1 29.668 28.434 32.675 
539 7 1 29.516 29.017 35.170 
540 7 1 27.582 29.906 35.917 
541 7 1 25.191 30.838 36.011 
542 7 1 22.731 31.700 36.252 
543 7 1 20.498 32.838 36.493 
544 7 1 18.216 34.069 36.660 
545 7 1 16.753 35.631 37.527 
546 7 1 15.539 37.711 38.290 
547 7 1 13.857 38.277 36.377 
548 7 1 12.638 37.941 34.529 
549 7 1 12.029 36.224 32.700 
550 7 1 11.714 34.122 31.262 
551 7 1 11.391 33.944 29.005 
552 7 1  9.886 34.222 26.878 
553 7 1  8.249 34.325 24.911 
554 7 1  6.620 34.801 22.957 
555 7 1  5.308 35.821 20.997 
556 7 1  3.452 37.579 20.867 
557 7 1  1.891 38.102 18.935 
558 7 1  0.542 40.114 18.833 
559 7 1 48.002 42.570 18.865 
560 7 1 48.023 45.130 19.273 
561 7 1  1.621 46.238 20.997 
562 7 1  2.932 47.246 22.910 
563 7 1  4.184 48.292 24.903 
564 7 1  5.658  1.825 26.611 
565 7 1  5.901  4.199 27.730 
566 7 1  5.461  5.496 29.562 
567 7 1  5.011  6.925 31.443 
568 7 1  5.328  8.560 33.138 
569 7 1  7.048 10.043 32.020 
570 7 1  8.713 10.653 30.028 
571 7 1  9.117  9.066 28.242 
572 7 1  8.857  7.596 26.231 
573 7 1  8.569  6.110 24.111 
574 7 1  8.224  4.945 21.765 
575 7 1  7.665  4.262 19.402 
576 7 1  7.759  3.079 17.487 
577 7 1  8.329  1.146 15.950 
578 7 1  8.892 46.975 14.296 
579 7 1  9.993 45.918 12.609 
580 7 1 11.881 45.749 10.940 
581 7 1 13.990 45.323  9.521 
582 7 1 16.283 44.994  8.433 
583 7 1 18.005 43.207  9.176 
584 7 1 19.869 41.551 10.144 
585 7 1 21.760 40.275 11.359 
586 7 1 23.147 38.493 11.807 
587 7 1 23.889 35.940 11.506 
588 7 1 24.780 33.614 11.148 
589 7 1 26.277 31.526 10.735 
590 7 1 27.530 29.304 10.625 
591 7 1 27.272 27.423  8.966 
592 7 1 26.262 25.297  8.204 
593 7 1 24.685 23.294  7.872 
594 7 1 22.685 21.840  7.198 
595 7 1 20.403 21.090  6.256 
596 7 1 18.021 20.513  5.258 
597 8 1 18.855 32.177 20.838 
598 8 1 20.655 33.120 19.306 
599 8 1 22.364 34.315 17.731 
600 8 1 24.188 34.528 16.339 
601 8 1 26.400 34.724 15.561 
602 8 1 28.323 35.437 13.975 
603 8 1 29.489 37.712 13.322 
604 8 1 30.474 40.040 12.889 
605 8 1 30.068 41.670 10.771 
606 8 1 29.328 42.718  8.579 
607 8 1 30.232 43.038  6.165 
608 8 1 32.005 43.102  4.448 
609 8 1 34.340 42.268  5.290 
610 8 1 36.593 41.565  6.216 
611 8 1 37.934 40.340  7.712 
612 8 1 38.369 38.101  8.952 
613 8 1 38.866 35.753  9.909 
614 8 1 39.846 33.637 10.963 
615 8 1 40.606 31.245 11.550 
616 8 1 39.499 29.816 13.286 
617 8 1 40.414 28.696 15.372 
618 8 1 41.495 27.336 17.310 
619 8 1 43.316 26.239 18.376 
620 8 1 45.727 25.465 18.820 
621 8 1 47.945 24.426 19.531 
622 8 1  2.171 23.506 20.563 
623 8 1  4.395 22.839 21.695 
624 8 1  5.137 20.636 22.558 
625 8 1  4.681 18.661 23.741 
626 8 1  3.405 16.680 24.426 
627 8 1  1.877 14.558 24.712 
628 8 1 -0.129 14.214 23.249 
629 8 1 45.713 13.814 21.656 
630 8 1 43.733 13.726 20.008 
631 8 1 41.832 13.885 18.340 
632 8 1 39.837 13.933 16.732 
633 8 1 37.709 13.978 15.244 
634 8 1 35.565 14.409 13.986 
635 8 1 33.921 14.486 12.357 
636 8 1 32.496 14.316 10.427 
637 8 1 30.209 14.232  9.223 
638 8 1 27.931 14.231  7.943 
639 8 1 26.571 13.355  6.308 
640 8 1 25.813 10.915  5.905 
641 8 1 25.805  8.466  6.142 
642 8 1 26.079  6.134  7.273 
643 8 1 25.958  4.199  8.704 
644 8 1 25.787  2.479 10.618 
645 8 1 25.277  1.449 12.886 
646 8 1 24.726  0.181 15.016 
647 8 1 25.634  0.202 17.416 
648 8 1 26.830  0.214 19.739 
649 8 1 27.883  0.435 22.159 
650 8 1 29.206  0.480 24.369 
651 8 1 30.817  1.099 26.044 
652 8 1 32.632  2.565 26.982 
653 8 1 33.874  4.639 27.436 
654 8 1 34.695  7.075 27.882 
655 8 1 35.591  9.495 28.309 
656 8 1 36.298 11.932 28.773 
657 8 1 36.034 14.461 29.283 
658 8 1 34.680 16.311 29.557 
659 8 1 32.719 17.970 29.325 
660 8 1 31.099 17.387 30.861 
661 8 1 30.114 17.321 33.230 
662 8 1 29.120 17.414 35.658 
663 8 1 27.654 18.212 37.607 
664 8 1 25.679 18.952 38.628 
665 8 1 23.851 20.141 39.474 
666 8 1 22.931 21.999 41.169 
667 8 1 22.048 23.560 42.992 
668 8 1 23.396 25.705 43.601 
669 8 1 25.481 25.928 45.121 
670 8 1 27.590 26.251 46.587 
671 8 1 28.151 27.900 48.321 
672 8 1 29.193 29.634 50.002 
673 8 1 30.306 31.617 51.079 
674 8 1 31.522 33.628 -1.873 
675 9 1 16.902 43.733 34.415 
676 9 1 17.297 43.902 31.905 
677 9 1 19.167 45.364 30.815 
678 9 1 21.108 46.410 29.649 
679 9 1 22.203 48.097 28.453 
680 9 1 22.009  1.197 26.250 
681 9 1 21.820  0.515 23.787 
682 9 1 21.710  0.038 21.314 
683 9 1 21.664 47.658 18.901 
684 9 1 21.337 48.158 16.379 
685 9 1 19.521  2.103 15.506 
686 9 1 17.864  3.593 15.734 
687 9 1 16.320  5.149 17.159 
688 9 1 15.143  6.989 18.519 
689 9 1 13.946  6.817 20.749 
690 9 1 12.819  6.891 23.055 
691 9 1 13.331  8.172 25.213 
692 9 1 12.763 10.425 25.503 
693 9 1 12.509 12.845 24.825 
694 9 1 12.416 15.412 24.222 
695 9 1 13.721 17.248 25.237 
696 9 1 15.093 19.142 26.191 
697 9 1 16.999 20.297 24.977 
698 9 1 18.372 20.809 23.227 
699 9 1 18.761 20.444 20.719 
700 9 1 19.065 19.727 18.330 
701 9 1 19.271 18.907 15.977 
702 9 1 19.385 18.591 13.629 
703 9 1 19.036 17.808 11.243 
704 9 1 18.196 17.604  8.861 
705 9 1 16.152 17.028  7.434 
706 9 1 14.292 16.305  5.727 
707 9 1 12.193 15.668  4.325 
708 9 1 10.032 15.206  2.969 
709 9 1  7.874 14.810  1.520 
710 9 1  5.826 14.745  0.015 
711 9 1  3.979 14.966 -1.798 
712 9 1  1.953 15.370 50.488 
713 9 1 47.772 15.914 49.030 
714 9 1 46.373 17.895 48.022 
715 9 1 44.920 19.885 47.439 
716 9 1 43.319 21.804 47.130 
717 9 1 42.073 24.069 46.986 
718 9 1 40.950 25.194 44.950 
719 9 1 39.855 26.100 42.810 
720 9 1 38.851 27.137 40.698 
721 9 1 38.056 28.223 38.497 
722 9 1 37.456 29.261 36.158 
723 9 1 36.393 29.692 34.026 
724 9 1 34.610 30.255 32.212 
725 9 1 33.937 31.399 30.301 
726 9 1 34.596 29.743 28.307 
727 9 1 35.324 30.570 26.008 
728 9 1 35.946 31.310 23.580 
729 9 1 35.379 29.888 21.454 
730 9 1 35.078 28.525 19.213 
731 9 1 34.576 26.435 18.370 
732 9 1 34.051 24.023 17.921 
733 9 1 33.599 21.888 16.575 
734 9 1 32.999 19.752 15.304 
735 9 1 33.962 18.016 16.566 
736 9 1 34.198 16.795 18.850 
737 9 1 34.056 15.753 21.158 
738 9 1 33.417 14.305 23.236 
739 9 1 31.959 14.199 25.357 
740 9 1 30.521 13.802 27.364 
741 9 1 29.167 13.011 29.423 
742 9 1 27.436 12.663 31.165 
743 9 1 28.431 12.817 33.573 
744 9 1 29.362 11.861 35.523 
745 9 1 31.177 10.683 36.322 
746 9 1 33.388 10.341 37.031 
747 9 1 35.472 10.888 38.353 
748 9 1 37.893 11.606 38.845 
749 9 1 40.194 11.870 38.331 
750 9 1 42.218 11.161 37.036 
751 9 1 44.206 10.210 35.658 
752 9 1 46.238  9.136 34.349 
753 10 1 14.859 35.202  1.330 
754 10 1 15.584 37.779  1.157 
755 10 1 16.373 40.261  0.930 
756 10 1 14.898 42.201 -0.133 
757 10 1 12.951 43.715 -0.702 
758 10 1 10.947 44.219 -1.531 
759 10 1  8.716 43.544 -2.572 
760 10 1  6.347 42.873 50.449 
761 10 1  5.768 40.816 49.133 
762 10 1  4.840 38.904 50.146 
763 10 1  3.906 37.286 -2.355 
764 10 1  2.172 37.498 -0.686 
765 10 1  1.060 38.568  1.394 
766 10 1 47.676 40.042  3.305 
767 10 1 48.225 42.443  4.112 
768 10 1  0.944 44.683  4.190 
769 10 1  1.189 46.818  2.859 
770 10 1  1.863  1.123  1.386 
771 10 1  2.634  3.360  0.301 
772 10 1  1.668  5.060 -1.440 
773 10 1  0.126  5.451 50.736 
774 10 1 45.877  5.240 49.259 
775 10 1 43.922  3.561 49.319 
776 10 1 41.976  1.822 49.424 
777 10 1 41.248  0.472 47.327 
778 10 1 40.595 46.855 45.206 
779 10 1 39.699 45.750 43.107 
780 10 1 38.640 45.154 40.779 
781 10 1 38.491 45.210 38.361 
782 10 1 38.196 47.582 37.542 
783 10 1 37.523 48.421 35.196 
784 10 1 37.633  3.338 34.607 
785 10 1 37.724  5.971 34.392 
786 10 1 37.532  8.516 34.339 
787 10 1 37.598 11.129 34.545 
788 10 1 37.933 13.702 34.789 
789 10 1 38.298 16.095 35.230 
790 10 1 39.059 17.908 36.285 
791 10 1 40.983 19.040 37.708 
792 10 1 42.326 20.738 38.303 
793 10 1 43.226 23.100 37.974 
794 10 1 43.767 25.585 37.415 
795 10 1 42.302 26.941 35.718 
796 10 1 41.162 28.298 33.928 
797 10 1 42.341 29.736 32.111 
798 10 1 43.321 31.090 30.124 
799 10 1 43.486 33.633 29.815 
800 10 1 43.638 36.219 29.402 
801 10 1 43.490 37.714 27.182 
802 10 1 43.405 40.327 27.045 
803 10 1 42.600 42.060 28.098 
804 10 1 41.330 43.897 28.951 
805 10 1 39.360 44.218 27.345 
806 10 1 37.587 44.809 25.492 
807 10 1 35.394 45.096 24.763 
808 10 1 33.332 44.367 24.167 
809 10 1 31.455 43.761 22.845 
810 10 1 31.267 45.170 20.687 
811 10 1 31.881 46.507 18.821 
812 10 1 32.993  1.128 18.771 
813 10 1 34.772  1.475 20.100 
814 10 1 35.805  1.759 22.397 
815 10 1 37.538  1.897 23.999 
816 10 1 39.865  1.353 24.787 
817 10 1 41.822  1.498 26.130 
818 10 1 41.786  1.351 28.710 
819 10 1 41.531  0.580 30.922 
820 10 1 41.161 46.374 32.222 
821 10 1 41.688 44.161 33.160 
822 10 1 42.888 42.011 33.966 
823 10 1 44.857 40.786 32.863 
824 10 1 46.425 39.058 31.761 
825 10 1 48.251 37.883 31.214 
826 10 1  1.894 37.029 33.072 
827 10 1  4.124 37.841 34.259 
828 10 1  6.190 38.425 35.785 
829 10 1  8.055 39.008 37.418 
830 10 1  9.972 39.180 39.176 
831 11 1 11.248 22.679 24.280 
832 11 1 13.070 21.571 22.840 
833 11 1 14.236 22.497 20.727 
834 11 1 15.510 23.280 18.605 
835 11 1 16.937 24.256 16.681 
836 11 1 18.180 25.528 14.891 
837 11 1 18.664 27.133 13.154 
838 11 1 17.694 28.999 11.583 
839 11 1 16.795 30.789  9.870 
840 11 1 16.208 32.519  7.912 
841 11 1 15.813 34.237  6.049 
842 11 1 16.783 36.696  5.944 
843 11 1 17.709 39.172  5.521 
844 11 1 18.580 41.603  5.051 
845 11 1 19.225 44.154  4.665 
846 11 1 19.197 45.569  2.547 
847 11 1 19.696 47.732  1.092 
848 11 1 20.359  2.254 -0.093 
849 11 1 21.025  4.407 -1.246 
850 11 1 21.749  6.600 -2.385 
851 11 1 22.691  8.836 50.543 
852 11 1 23.892 10.935 49.601 
853 11 1 25.058 13.125 48.655 
854 11 1 26.219 15.307 48.021 
855 11 1 27.619 17.393 47.597 
856 11 1 28.468 19.819 47.031 
857 11 1 28.880 21.596 48.774 
858 11 1 29.013 23.335 50.748 
859 11 1 29.392 25.212 -1.393 
860 11 1 30.049 26.948  0.411 
861 11 1 31.208 28.539  2.046 
862 11 1 30.745 31.152  2.484 
863 11 1 30.309 33.696  2.715 
864 11 1 29.991 36.198  2.258 
865 11 1 31.046 37.573  3.919 
866 11 1 32.249 38.070  6.120 
867 11 1 33.419 38.332  8.417 
868 11 1 34.145 36.157  9.723 
869 11 1 34.607 33.935 10.828 
870 11 1 34.944 31.675 11.812 
871 11 1 34.362 29.523 12.296 
872 11 1 32.664 27.614 12.520 
873 11 1 30.145 27.713 13.020 
874 11 1 28.637 25.633 12.856 
875 11 1 27.219 23.610 12.338 
876 11 1 25.865 21.472 11.813 
877 11 1 24.471 19.393 11.306 
878 11 1 23.582 17.746 10.028 
879 11 1 22.500 16.665  8.000 
880 11 1 21.320 15.375  6.153 
881 11 1 18.971 15.235  5.294 
882 11 1 17.964 14.975  2.968 
883 11 1 16.893 14.916  0.659 
884 11 1 15.672 15.085 -1.616 
885 11 1 14.812 15.776 50.005 
886 11 1 14.384 17.151 47.852 
887 11 1 14.196 17.635 45.550 
888 11 1 12.070 16.728 44.362 
889 11 1 11.798 14.572 45.202 
890 11 1 10.268 13.507 47.093 
891 11 1  8.735 12.503 48.841 
892 11 1  7.281 10.880 50.204 
893 11 1  7.577 10.250 -1.206 
894 11 1  7.886  9.448  1.144 
895 11 1  8.949  9.678  3.148 
896 11 1 10.669 10.642  4.715 
897 11 1 12.648 11.620  6.076 
898 11 1 14.739 12.123  7.554 
899 11 1 16.854 11.981  9.029 
900 11 1 19.080 11.452 10.448 
901 11 1 21.226 10.999 11.763 
902 11 1 22.840 10.043 12.903 
903 11 1 24.432  8.149 13.424 
904 11 1 26.048  6.206 14.227 
905 11 1 27.772  4.541 15.363 
906 11 1 29.114  3.785 17.185 
907 11 1 29.935  4.282 19.556 
908 11 1 30.475  4.820 21.945 
909 12 1 20.752 20.985 -0.086 
910 12 1 20.737 23.389 -1.026 
911 12 1 20.998 25.858 -1.762 
912 12 1 21.771 27.816 -0.277 
913 12 1 22.651 30.007  0.743 
914 12 1 23.665 32.185  1.426 
915 12 1 24.817 34.506  1.461 
916 12 1 25.791 36.898  1.368 
917 12 1 26.858 39.276  1.353 
918 12 1 26.844 40.344  3.584 
919 12 1 27.135 39.281  5.860 
920 12 1 27.344 38.219  8.168 
921 12 1 29.007 36.552  8.804 
922 12 1 29.993 34.197  8.899 
923 12 1 30.889 31.832  8.699 
924 12 1 31.757 29.397  8.080 
925 12 1 32.797 28.065  6.577 
926 12 1 34.220 26.917  5.158 
927 12 1 36.038 25.235  5.074 
928 12 1 37.862 23.282  5.051 
929 12 1 37.557 20.805  5.704 
930 12 1 39.378 19.456  6.836 
931 12 1 41.171 18.082  8.123 
932 12 1 43.064 16.571  9.176 
933 12 1 44.773 15.135 10.303 
934 12 1 46.130 13.297 11.481 
935 12 1 47.255 11.113 12.433 
936 12 1  0.595  9.183 13.607 
937 12 1  1.646  8.265 15.472 
938 12 1  3.203  8.009 17.105 
939 12 1  5.573  7.737 17.995 
940 12 1  7.882  8.206 16.818 
941 12 1 10.323  7.938 15.936 
942 12 1 11.991  7.878 14.248 
943 12 1 12.777 10.205 13.367 
944 12 1 12.075 11.621 11.337 
945 12 1 10.728 12.516  9.788 
946 12 1  8.739 12.644  8.190 
947 12 1  6.792 12.624  6.714 
948 12 1  4.901 12.504  4.967 
949 12 1  2.846 12.778  3.544 
950 12 1  1.007 12.912  1.755 
951 12 1 47.177 12.819 -0.122 
952 12 1 45.632 13.065 -2.084 
953 12 1 44.251 13.212 49.656 
954 12 1 42.609 13.487 47.562 
955 12 1 41.088 13.477 45.462 
956 12 1 39.436 13.566 43.484 
957 12 1 38.015 14.909 42.090 
958 12 1 36.677 16.224 40.730 
959 12 1 35.436 16.426 38.532 
960 12 1 34.494 15.826 36.122 
961 12 1 33.761 14.675 33.954 
962 12 1 32.853 13.143 32.100 
963 12 1 33.298 10.647 32.242 
964 12 1 33.902  8.052 32.386 
965 12 1 32.733  5.802 32.710 
966 12 1 33.319  3.465 31.758 
967 12 1 32.849  1.176 32.742 
968 12 1 32.542 46.295 33.416 
969 12 1 34.331 44.603 34.049 
970 12 1 36.109 43.117 34.899 
971 12 1 38.072 41.570 35.455 
972 12 1 38.648 39.522 33.878 
973 12 1 40.186 37.467 34.421 
974 12 1 41.827 36.055 35.286 
975 12 1 41.921 35.806 37.861 
976 12 1 42.612 37.759 38.858 
977 12 1 42.638 40.236 39.374 
978 12 1 42.654 42.692 39.711 
979 12 1 43.071 44.957 39.362 
980 12 1 43.785 47.150 38.207 
981 12 1 45.087 47.117 35.985 
982 12 1 45.704 46.604 33.677 
983 12 1 45.837 45.938 31.126 
984 12 1 46.122 45.334 28.686 
985 12 1 46.977 44.933 26.299 
986 12 1 48.066 43.745 24.579 