LAMMPS data file generated by aa2cg.

2000 atoms
1 atom types
1975 bonds
1 bond types
1950 angles
1 angle types
1925 dihedrals
1 dihedral types

 0.000 55.170 xlo xhi
 0.000 40.666 ylo yhi
 0.000 54.762 zlo zhi

Masses

1 24.022

Atoms # molecular

1 1 1 15.931 17.881 30.544 
2 1 1 34.571 12.507 50.940 
3 2 1  7.236 43.138 24.017 
4 2 1 50.389 26.705 22.067 
5 3 1 -2.531 25.034 40.766 
6 3 1  2.441 30.220 24.757 
7 4 1 31.575 29.343 16.281 
8 4 1 19.190 38.629 14.040 
9 5 1 34.341 37.121 20.143 
10 5 1  9.931 43.380  1.401 
11 6 1 14.603  3.701 21.049 
12 6 1 46.157 14.404 15.033 
13 7 1  9.390 19.735 16.445 
14 7 1 40.066 22.144 23.210 
15 8 1 20.040 33.088 31.546 
16 8 1 48.978 19.050  4.572 
17 9 1 47.837 22.362 29.809 
18 9 1 46.586 19.081 32.716 
19 10 1 49.250 27.573 12.780 
20 10 1 17.807 33.171 49.684 
21 11 1  3.846 40.412 13.186 
22 11 1 27.674 22.328 43.789 
23 12 1  7.991 10.996  2.744 
24 12 1 24.323 12.502  4.103 
25 13 1 27.370 41.676 46.910 
26 13 1 -0.715 14.624 45.764 
27 14 1  5.682 17.080 14.031 
28 14 1 25.324 22.710 14.216 
29 15 1 34.694 16.663 35.983 
30 15 1 39.948 21.676 31.658 
31 16 1 41.134 30.775  9.771 
32 16 1 12.325 28.844 36.422 
33 17 1 -1.460 11.340 31.507 
34 17 1 -1.408 31.000 32.845 
35 18 1 44.519 20.962 39.601 
36 18 1  5.474 28.482  6.115 
37 19 1 33.999 41.316 41.549 
38 19 1 21.379 23.786 50.669 
39 20 1 40.246 36.467 34.521 
40 20 1  7.363 11.059 44.938 
41 21 1 47.640 22.356 43.119 
42 21 1 21.031  8.595 47.384 
43 22 1  5.856 26.415 46.969 
44 22 1  1.741 16.463 16.616 
45 23 1 -1.012 32.086 13.142 
46 23 1 41.492 44.799 22.504 
47 24 1 15.608 24.764 17.406 
48 24 1 45.443 10.368 47.890 
49 25 1 -2.243 43.936 42.431 
50 25 1 10.778 24.883  3.253 
51 1 1 17.666 18.329 32.222 
52 1 1 18.650 18.334 34.637 
53 1 1 19.274 18.501 37.168 
54 1 1 19.452 17.600 39.327 
55 1 1 18.654 15.634 40.829 
56 1 1 16.555 14.792 39.958 
57 1 1 14.358 14.278 39.625 
58 1 1 12.105 13.331 40.250 
59 1 1  9.669 12.445 40.690 
60 1 1  7.726 11.414 39.774 
61 1 1  5.718 11.073 38.779 
62 1 1  4.535  8.859 39.427 
63 1 1  3.645  6.756 40.725 
64 1 1  2.614  4.669 41.817 
65 1 1  2.750 43.711 43.599 
66 1 1  3.603 42.676 45.900 
67 1 1  4.493 41.527 48.109 
68 1 1  5.610 40.037 49.762 
69 1 1  7.056 38.496 51.106 
70 1 1  8.773 37.169 52.553 
71 1 1 10.907 38.259 -1.302 
72 1 1 11.992 38.537  1.001 
73 1 1 12.167 39.364  3.136 
74 1 1 11.900 41.081  5.078 
75 1 1  9.605 41.780  5.922 
76 1 1  7.135 42.300  6.730 
77 1 1  7.363 43.718  8.660 
78 1 1  7.798 44.878 10.689 
79 1 1  7.412  4.911 13.066 
80 1 1  6.640  6.385 15.011 
81 1 1  6.147  7.964 17.024 
82 1 1  7.095  9.351 18.630 
83 1 1  8.223 10.877 20.006 
84 1 1  8.663 11.793 22.101 
85 1 1  9.093 12.015 24.647 
86 1 1  9.731 12.167 27.102 
87 1 1 10.869 11.848 29.481 
88 1 1 10.121 10.755 31.681 
89 1 1  9.943  9.234 33.839 
90 1 1  9.278  7.491 35.277 
91 1 1  7.867  5.433 36.010 
92 1 1  6.488 44.310 37.067 
93 1 1  4.936 42.713 38.226 
94 1 1  3.466 40.969 39.431 
95 1 1  2.240 39.275 40.724 
96 1 1  0.728 37.876 42.247 
97 1 1  0.267 37.205 44.404 
98 1 1  0.217 39.130 46.144 
99 1 1  1.152 38.282 48.187 
100 1 1  2.414 36.480 49.713 
101 1 1  3.626 34.801 51.285 
102 1 1  3.588 33.167 -1.820 
103 1 1  2.915 30.763 -2.570 
104 1 1  3.203 28.419 51.820 
105 1 1  4.320 26.137 51.710 
106 1 1  4.914 23.742 51.328 
107 1 1  5.895 21.271 51.288 
108 1 1  7.126 18.997 51.484 
109 1 1  8.347 17.146 50.677 
110 1 1  9.852 15.482 49.915 
111 1 1 11.816 14.589 49.304 
112 1 1 14.156 14.063 49.187 
113 1 1 16.272 12.806 49.932 
114 1 1 18.269 11.559 50.949 
115 1 1 20.360 10.255 51.718 
116 1 1 22.399  8.799 52.432 
117 1 1 23.414  8.489  0.025 
118 1 1 24.614  8.177  2.383 
119 1 1 25.741  8.180  4.648 
120 1 1 26.326  8.943  6.729 
121 1 1 27.312 11.376  6.851 
122 1 1 26.096 13.284  8.114 
123 1 1 27.216 15.184  7.519 
124 1 1 28.478 16.745  5.968 
125 1 1 29.376 16.035  3.606 
126 1 1 30.345 15.158  1.420 
127 1 1 31.343 14.096 -0.752 
128 1 1 32.192 12.792 -2.778 
129 2 1  4.887 43.529 23.186 
130 2 1  2.658 44.235 22.057 
131 2 1  0.462  4.320 21.184 
132 2 1 -1.841  5.109 20.188 
133 2 1 -3.627 44.147 19.387 
134 2 1 50.467 42.036 18.944 
135 2 1 50.006 39.499 19.231 
136 2 1 49.428 36.937 19.494 
137 2 1 48.746 34.582 20.090 
138 2 1 47.948 32.267 21.065 
139 2 1 47.057 30.168 22.360 
140 2 1 45.980 28.300 23.849 
141 2 1 44.665 26.757 22.741 
142 2 1 42.468 26.088 21.543 
143 2 1 40.780 27.191 19.869 
144 2 1 39.975 29.107 18.889 
145 2 1 40.179 31.016 17.648 
146 2 1 40.930 32.394 15.710 
147 2 1 42.052 33.769 13.955 
148 2 1 43.383 35.199 12.236 
149 2 1 43.430 35.612  9.706 
150 2 1 43.475 36.286  7.254 
151 2 1 43.387 37.635  5.002 
152 2 1 42.468 39.388  3.929 
153 2 1 40.716 41.353  3.965 
154 2 1 39.158 43.438  4.171 
155 2 1 37.486  4.734  4.149 
156 2 1 35.368  6.239  4.282 
157 2 1 33.077  7.381  4.652 
158 2 1 32.314  8.570  6.815 
159 2 1 31.567 10.238  8.540 
160 2 1 30.893 11.810 10.500 
161 2 1 28.797 10.974 11.371 
162 2 1 26.741  9.448 11.742 
163 2 1 24.884  7.616 12.274 
164 2 1 24.619  5.289 10.988 
165 2 1 24.313 43.814  9.652 
166 2 1 24.042 42.056  7.798 
167 2 1 22.024 41.510  6.301 
168 2 1 20.088 41.190  4.642 
169 2 1 18.334 40.286  3.058 
170 2 1 16.679 38.668  1.897 
171 2 1 16.365 37.591 -0.531 
172 2 1 16.448 37.442 -2.915 
173 2 1 17.475 37.763 49.433 
174 2 1 18.264 39.799 48.519 
175 2 1 18.439 42.342 48.032 
176 2 1 18.742 44.541 48.773 
177 2 1 18.701  5.887 50.362 
178 2 1 16.603  7.178 51.219 
179 2 1 14.734  8.772 51.916 
180 2 1 12.860 10.287 -1.807 
181 2 1 11.305 11.992 -0.721 
182 2 1 10.086 13.944  0.399 
183 2 1  8.779 16.026  1.037 
184 2 1  9.550 18.419  1.790 
185 2 1  8.069 20.226  2.773 
186 2 1  7.174 21.525  4.857 
187 2 1  5.672 22.709  6.532 
188 2 1  3.756 23.988  7.773 
189 2 1  1.920 25.207  9.141 
190 2 1  0.584 26.099 11.216 
191 2 1 -1.018 26.710 13.091 
192 2 1 -2.728 27.218 14.982 
193 2 1 51.466 27.909 17.261 
194 2 1 -3.341 30.239 18.299 
195 2 1 -2.819 32.377 18.305 
196 2 1 -2.290 34.756 17.548 
197 2 1 -1.829 37.249 17.048 
198 2 1  0.322 37.283 16.017 
199 2 1  2.274 36.610 14.796 
200 2 1  4.233 35.478 13.947 
201 2 1  4.566 33.249 15.077 
202 2 1  3.773 31.755 16.613 
203 2 1  2.095 30.682 18.326 
204 2 1  0.792 29.639 20.275 
205 2 1 -0.436 28.533 22.343 
206 2 1 -2.874 27.761 22.615 
207 3 1 -2.049 26.749 42.521 
208 3 1 -0.925 29.048 42.526 
209 3 1  0.137 31.028 41.660 
210 3 1  0.685 32.703 39.789 
211 3 1  1.270 34.536 38.141 
212 3 1  1.967 36.302 36.363 
213 3 1  2.499 38.321 34.927 
214 3 1  2.696 40.695 33.960 
215 3 1  3.084 43.156 33.481 
216 3 1  3.846  4.703 32.559 
217 3 1  4.641  6.982 31.800 
218 3 1  5.522  9.259 30.925 
219 3 1  4.731 10.401 28.752 
220 3 1  4.017 11.236 26.509 
221 3 1  3.635 12.404 24.288 
222 3 1  2.209 12.498 22.117 
223 3 1  0.555 11.934 20.267 
224 3 1 -1.481 11.075 18.880 
225 3 1 -2.786  9.712 17.620 
226 3 1 51.302  7.496 16.761 
227 3 1 51.256  5.680 15.320 
228 3 1 52.079 44.079 14.233 
229 3 1 -2.491 41.897 13.253 
230 3 1 -1.814 39.715 12.028 
231 3 1 -1.046 37.546 10.845 
232 3 1 -1.276 35.664  9.516 
233 3 1 -2.359 34.212  7.659 
234 3 1 51.860 32.662  5.850 
235 3 1 -2.606 32.954  3.423 
236 3 1 -1.659 33.590  1.193 
237 3 1 -0.312 34.407 -0.939 
238 3 1 -1.402 36.020 -2.640 
239 3 1 -2.553 37.876 50.745 
240 3 1 51.691 39.867 49.482 
241 3 1 50.675 41.581 47.768 
242 3 1 48.856 42.454 46.756 
243 3 1 46.885 43.652 46.348 
244 3 1 44.957  4.172 45.636 
245 3 1 42.506  4.386 45.001 
246 3 1 40.064  4.696 44.372 
247 3 1 37.868  4.766 43.166 
248 3 1 35.582  4.863 41.975 
249 3 1 33.262  4.720 40.939 
250 3 1 30.686  4.565 40.342 
251 3 1 28.913 43.386 40.662 
252 3 1 28.061 41.372 41.309 
253 3 1 27.908 38.990 42.119 
254 3 1 27.529 36.607 42.985 
255 3 1 26.374 34.577 43.212 
256 3 1 24.302 33.089 42.876 
257 3 1 22.000 33.507 41.791 
258 3 1 20.270 34.743 40.866 
259 3 1 19.272 37.095 40.189 
260 3 1 18.415 39.455 39.769 
261 3 1 17.269 41.636 39.253 
262 3 1 16.329 43.972 38.767 
263 3 1 15.927  5.770 37.993 
264 3 1 14.035  7.562 38.287 
265 3 1 13.902  9.807 37.171 
266 3 1 13.408 11.996 35.937 
267 3 1 12.950 13.998 34.484 
268 3 1 11.838 15.120 32.673 
269 3 1 10.885 16.518 31.072 
270 3 1 10.872 18.656 29.547 
271 3 1  9.353 20.266 30.234 
272 3 1  7.915 21.907 31.020 
273 3 1  6.501 23.525 31.930 
274 3 1  5.074 25.155 32.721 
275 3 1  3.612 26.874 33.132 
276 3 1  2.494 27.572 31.135 
277 3 1  3.881 29.367 29.917 
278 3 1  4.953 31.329 28.517 
279 3 1  6.080 33.487 27.895 
280 3 1  7.775 34.943 27.221 
281 3 1  8.400 34.601 24.777 
282 3 1  7.716 34.253 22.587 
283 3 1  5.227 33.252 22.404 
284 3 1  3.643 31.755 23.037 
285 4 1 30.445 27.801 14.601 
286 4 1 29.690 26.388 12.537 
287 4 1 28.877 24.794 10.649 
288 4 1 27.482 23.228  9.702 
289 4 1 25.068 22.321  9.138 
290 4 1 22.863 21.370  8.273 
291 4 1 20.525 20.895  7.681 
292 4 1 19.602 19.949  5.637 
293 4 1 17.657 18.189  5.396 
294 4 1 17.927 15.616  6.082 
295 4 1 18.004 13.049  6.600 
296 4 1 18.692 11.330  4.832 
297 4 1 17.189  9.582  3.670 
298 4 1 15.592  8.051  2.308 
299 4 1 13.727  6.442  1.337 
300 4 1 14.161  4.355 -0.099 
301 4 1 15.511 43.461 -1.314 
302 4 1 14.514 43.142 51.301 
303 4 1 12.562 42.017 49.899 
304 4 1 10.740 41.077 48.352 
305 4 1  9.173 39.867 46.722 
306 4 1  7.884 39.619 44.840 
307 4 1  7.033 40.489 42.707 
308 4 1  7.542 42.999 42.211 
309 4 1  8.313  4.780 41.893 
310 4 1 10.690  5.708 41.745 
311 4 1 11.603  8.017 42.488 
312 4 1 12.630 10.251 43.410 
313 4 1 14.276  9.926 44.937 
314 4 1 15.733  9.077 46.532 
315 4 1 15.415  6.702 46.596 
316 4 1 14.388  4.433 46.563 
317 4 1 13.679 43.846 44.464 
318 4 1 12.837 42.418 42.477 
319 4 1 12.216 41.843 40.274 
320 4 1 12.253 42.682 37.903 
321 4 1 12.324 43.659 35.530 
322 4 1 12.514 44.961 33.396 
323 4 1 12.854  5.839 31.370 
324 4 1 12.943  7.254 29.206 
325 4 1 13.197  8.742 27.151 
326 4 1 13.323  9.368 24.928 
327 4 1 13.058  9.264 22.379 
328 4 1 14.020  9.029 20.293 
329 4 1 15.941  8.365 18.688 
330 4 1 17.817  7.658 16.944 
331 4 1 20.334  7.637 17.482 
332 4 1 22.760  7.687 18.215 
333 4 1 24.985  8.607 17.451 
334 4 1 27.344  9.451 16.793 
335 4 1 28.917 11.083 16.344 
336 4 1 29.991 13.408 16.357 
337 4 1 30.733 15.243 15.035 
338 4 1 31.143 16.416 12.764 
339 4 1 31.296 17.678 10.434 
340 4 1 31.072 19.200  8.310 
341 4 1 31.003 20.574  6.125 
342 4 1 30.128 22.464  5.168 
343 4 1 28.551 24.509  5.184 
344 4 1 26.661 26.192  4.943 
345 4 1 24.176 25.788  5.379 
346 4 1 21.833 25.452  6.440 
347 4 1 19.931 25.256  5.123 
348 4 1 18.265 24.066  3.537 
349 4 1 16.264 23.120  2.298 
350 4 1 15.091 20.737  2.175 
351 4 1 13.610 18.984  2.721 
352 4 1 13.219 18.535  4.988 
353 4 1 13.981 18.336  7.227 
354 4 1 14.866 19.290  9.403 
355 4 1 16.815 21.001  9.917 
356 4 1 17.262 22.458 11.970 
357 4 1 17.815 24.495 13.358 
358 4 1 18.855 26.436 14.723 
359 4 1 19.742 28.430 14.751 
360 4 1 19.518 30.956 14.497 
361 4 1 19.293 33.541 14.357 
362 4 1 19.149 36.012 13.976 
363 5 1 32.904 37.820 22.062 
364 5 1 31.017 38.901 23.279 
365 5 1 28.681 39.827 23.753 
366 5 1 26.058 40.353 23.930 
367 5 1 23.553 40.976 24.129 
368 5 1 21.117 41.869 24.232 
369 5 1 18.824 43.065 24.452 
370 5 1 17.517 44.906 25.078 
371 5 1 17.512  6.455 26.325 
372 5 1 17.365  8.705 27.466 
373 5 1 19.497 10.013 28.034 
374 5 1 21.697 10.466 28.653 
375 5 1 23.647 10.223 29.793 
376 5 1 25.696 10.845 31.034 
377 5 1 26.174 11.386 33.468 
378 5 1 26.619 11.023 35.765 
379 5 1 27.072  9.374 37.688 
380 5 1 26.624  7.849 39.435 
381 5 1 25.354  6.649 41.300 
382 5 1 23.991  5.368 43.107 
383 5 1 23.009  4.784 45.228 
384 5 1 22.396 43.009 45.693 
385 5 1 22.542 41.251 47.698 
386 5 1 22.480 39.652 49.737 
387 5 1 21.854 38.226 51.756 
388 5 1 21.462 37.911 -0.791 
389 5 1 23.430 38.448  0.760 
390 5 1 25.214 39.406  2.405 
391 5 1 26.957 40.084  4.187 
392 5 1 27.655 42.498  4.898 
393 5 1 28.696 44.732  5.693 
394 5 1 29.092  4.941  8.069 
395 5 1 29.374  5.851 10.449 
396 5 1 31.532  6.363 11.770 
397 5 1 31.820  7.680 14.090 
398 5 1 33.008  9.952 14.456 
399 5 1 33.922 11.933 13.745 
400 5 1 35.148 13.631 12.181 
401 5 1 37.544 13.342 11.192 
402 5 1 39.771 12.890  9.910 
403 5 1 41.333 11.669  8.594 
404 5 1 42.395  9.514  7.782 
405 5 1 41.246  7.270  7.765 
406 5 1 42.476  5.403  7.164 
407 5 1 44.250 44.742  6.584 
408 5 1 45.206 43.489  4.917 
409 5 1 46.091 41.673  3.757 
410 5 1 47.801 39.747  3.110 
411 5 1 48.394 37.762  4.559 
412 5 1 48.535 36.327  6.532 
413 5 1 48.235 35.606  9.084 
414 5 1 49.687 36.249 11.145 
415 5 1 49.425 37.858 13.175 
416 5 1 48.603 39.812 14.277 
417 5 1 47.356 42.064 14.621 
418 5 1 46.468 44.426 15.004 
419 5 1 46.067  6.188 15.518 
420 5 1 46.478  8.286 16.624 
421 5 1 47.635 10.053 18.044 
422 5 1 48.981 11.652 19.560 
423 5 1 50.547 13.135 20.960 
424 5 1 50.433 13.360 23.537 
425 5 1 50.207 13.629 26.108 
426 5 1 49.990 14.195 28.627 
427 5 1 49.898 14.282 31.253 
428 5 1 49.919 14.912 33.724 
429 5 1 51.806 14.060 35.230 
430 5 1 -1.320 13.314 36.636 
431 5 1 -0.991 13.260 39.264 
432 5 1  1.242 13.001 40.538 
433 5 1  1.523 11.785 42.601 
434 5 1  1.616  9.983 44.342 
435 5 1  3.427  8.242 45.022 
436 5 1  5.104  6.541 46.140 
437 5 1  6.634  5.073 47.502 
438 5 1  7.942  3.597 49.172 
439 5 1  8.575 43.199 51.494 
440 5 1  9.142 42.856 -0.778 
441 6 1 13.174 42.515 20.265 
442 6 1 11.347 41.144 20.392 
443 6 1  9.494 39.981 21.772 
444 6 1  7.633 38.694 22.655 
445 6 1  5.493 39.191 24.054 
446 6 1  3.577 37.582 24.513 
447 6 1  1.868 35.874 25.403 
448 6 1  0.280 34.407 26.899 
449 6 1 -0.280 32.554 28.208 
450 6 1 -0.203 30.156 28.908 
451 6 1 -1.068 28.208 27.490 
452 6 1 -2.340 26.187 26.455 
453 6 1 -1.137 24.316 25.056 
454 6 1  0.102 22.735 23.392 
455 6 1  1.518 21.238 21.882 
456 6 1  2.748 20.606 19.928 
457 6 1  3.844 20.898 17.580 
458 6 1  2.764 20.809 15.266 
459 6 1  2.261 21.029 12.666 
460 6 1  1.808 20.240 10.436 
461 6 1  3.792 19.289  8.988 
462 6 1  3.316 18.209  6.907 
463 6 1  1.875 17.896  4.841 
464 6 1  0.105 17.480  2.916 
465 6 1 -1.549 16.774  1.033 
466 6 1 -3.082 15.888 -0.773 
467 6 1 50.332 15.294 -2.645 
468 6 1 48.588 14.529 50.385 
469 6 1 47.390 15.962 48.634 
470 6 1 46.218 17.195 46.798 
471 6 1 45.241 18.796 45.187 
472 6 1 42.929 19.517 44.290 
473 6 1 40.675 20.228 43.162 
474 6 1 40.471 21.371 40.868 
475 6 1 40.194 22.674 38.659 
476 6 1 39.632 23.852 36.517 
477 6 1 39.044 25.240 34.401 
478 6 1 38.918 26.407 32.170 
479 6 1 39.238 28.084 30.613 
480 6 1 39.597 30.514 29.716 
481 6 1 40.413 32.802 28.864 
482 6 1 40.812 34.423 27.066 
483 6 1 40.546 36.077 25.179 
484 6 1 40.224 37.455 23.057 
485 6 1 40.022 38.904 20.995 
486 6 1 40.331 40.546 19.183 
487 6 1 41.561 41.998 17.402 
488 6 1 41.277 44.536 17.300 
489 6 1 40.834  6.345 16.764 
490 6 1 41.855  8.331 17.737 
491 6 1 42.844 10.619 18.429 
492 6 1 42.819 12.672 19.385 
493 6 1 41.871 14.712 20.592 
494 6 1 39.855 15.207 22.021 
495 6 1 38.053 14.227 22.993 
496 6 1 36.572 12.279 23.654 
497 6 1 35.023 10.424 24.555 
498 6 1 33.573  8.617 25.568 
499 6 1 32.478  6.379 26.299 
500 6 1 32.623  4.077 27.015 
501 6 1 33.047 42.403 27.403 
502 6 1 32.215 39.933 27.593 
503 6 1 31.432 37.553 27.972 
504 6 1 32.424 35.852 26.741 
505 6 1 34.679 34.759 26.017 
506 6 1 36.247 33.989 24.603 
507 6 1 37.117 33.903 22.249 
508 6 1 38.717 34.066 20.286 
509 6 1 38.440 35.500 18.225 
510 6 1 38.275 36.973 16.244 
511 6 1 40.211 38.038 14.949 
512 6 1 42.349 39.145 14.067 
513 6 1 42.384 41.663 13.381 
514 6 1 42.166 44.082 12.624 
515 6 1 41.942  5.999 12.460 
516 6 1 41.608  8.588 12.660 
517 6 1 43.338 10.325 13.511 
518 6 1 44.640 12.401 14.472 
519 7 1  8.674 22.196 16.689 
520 7 1  7.268 24.186 17.002 
521 7 1  5.457 25.851 17.733 
522 7 1  4.440 25.595 20.004 
523 7 1  3.638 25.876 22.454 
524 7 1  3.755 25.709 24.745 
525 7 1  4.470 24.935 27.129 
526 7 1  6.225 23.306 26.919 
527 7 1  7.748 21.434 25.903 
528 7 1  9.198 19.365 25.254 
529 7 1 10.624 17.284 24.748 
530 7 1 12.134 15.695 25.746 
531 7 1 13.904 14.646 27.332 
532 7 1 14.896 13.011 29.112 
533 7 1 15.427 11.223 30.802 
534 7 1 16.123  9.477 32.599 
535 7 1 16.767  7.346 33.565 
536 7 1 17.293  4.825 34.013 
537 7 1 16.785 43.190 32.888 
538 7 1 16.328 41.662 31.092 
539 7 1 15.378 40.671 28.938 
540 7 1 15.191 39.775 26.792 
541 7 1 16.434 39.190 24.549 
542 7 1 17.709 38.778 22.282 
543 7 1 18.216 40.361 20.327 
544 7 1 18.061 41.983 18.654 
545 7 1 17.002 43.525 16.997 
546 7 1 16.077  4.378 14.993 
547 7 1 14.820  5.705 13.142 
548 7 1 13.224  6.931 11.525 
549 7 1 11.327  7.889 10.101 
550 7 1  9.479  9.170  9.626 
551 7 1  8.068 11.436  9.539 
552 7 1  6.551 13.468  9.996 
553 7 1  4.498 14.695 10.513 
554 7 1  2.049 15.272 11.129 
555 7 1 -0.426 15.835 11.460 
556 7 1 -1.951 15.506 13.584 
557 7 1 -3.682 13.579 13.777 
558 7 1 49.696 11.741 13.783 
559 7 1 47.992 10.043 12.780 
560 7 1 46.613  8.229 11.760 
561 7 1 46.346  6.097 11.010 
562 7 1 47.087  4.138 10.025 
563 7 1 49.623 44.520  9.811 
564 7 1 52.029  4.664  9.423 
565 7 1 -0.874  5.745  9.025 
566 7 1  1.262  6.443  9.560 
567 7 1  3.163  7.307 10.698 
568 7 1  4.827  8.915 11.740 
569 7 1  6.394 10.527 13.188 
570 7 1  7.716 12.034 14.710 
571 7 1  9.184 13.685 15.884 
572 7 1 10.187 14.959 17.573 
573 7 1 11.300 15.436 19.593 
574 7 1 13.289 15.066 21.240 
575 7 1 15.019 14.197 22.921 
576 7 1 16.762 12.792 24.328 
577 7 1 17.962 10.640 23.717 
578 7 1 19.210  8.495 22.854 
579 7 1 19.958  6.381 21.778 
580 7 1 20.886  4.147 20.869 
581 7 1 23.325  3.720 20.195 
582 7 1 25.597 45.009 19.858 
583 7 1 26.897  4.887 21.986 
584 7 1 27.499  4.500 24.263 
585 7 1 27.657 43.476 26.224 
586 7 1 28.117 41.355 27.550 
587 7 1 26.545 39.890 28.996 
588 7 1 27.250 37.594 30.127 
589 7 1 27.921 35.212 30.661 
590 7 1 28.954 33.219 30.303 
591 7 1 30.524 31.929 28.747 
592 7 1 32.149 30.981 26.997 
593 7 1 34.021 29.913 25.942 
594 7 1 35.719 28.113 25.096 
595 7 1 37.364 26.375 24.121 
596 7 1 38.925 24.390 23.430 
597 8 1 19.847 31.931 33.769 
598 8 1 19.055 30.676 35.496 
599 8 1 17.265 28.971 36.364 
600 8 1 16.755 26.693 35.292 
601 8 1 15.911 24.650 33.959 
602 8 1 14.912 22.427 32.901 
603 8 1 14.563 22.145 30.418 
604 8 1 14.444 21.346 27.983 
605 8 1 14.496 20.204 25.672 
606 8 1 15.304 19.081 23.821 
607 8 1 17.176 17.791 22.778 
608 8 1 18.810 16.910 21.280 
609 8 1 20.621 17.023 19.427 
610 8 1 22.361 16.082 18.184 
611 8 1 24.188 15.063 19.788 
612 8 1 25.950 14.034 21.240 
613 8 1 27.757 13.286 22.822 
614 8 1 29.540 13.154 24.461 
615 8 1 29.788 11.043 25.187 
616 8 1 28.886 10.267 27.556 
617 8 1 27.797  7.931 27.717 
618 8 1 27.060  6.421 29.653 
619 8 1 25.185  6.487 31.208 
620 8 1 23.745  7.358 33.098 
621 8 1 22.013  8.566 34.686 
622 8 1 21.540  7.802 36.910 
623 8 1 20.740  5.744 38.421 
624 8 1 20.957  3.679 39.542 
625 8 1 22.016 42.235 40.382 
626 8 1 23.408 40.162 41.242 
627 8 1 23.430 37.836 40.018 
628 8 1 24.606 38.047 38.064 
629 8 1 25.921 39.283 36.249 
630 8 1 27.563 40.260 34.501 
631 8 1 28.998 41.460 32.737 
632 8 1 30.203 42.965 31.013 
633 8 1 32.086 44.790 31.217 
634 8 1 33.910  5.783 31.724 
635 8 1 35.156  7.927 32.530 
636 8 1 36.346 10.228 33.249 
637 8 1 37.225 12.448 34.203 
638 8 1 37.409 14.713 33.028 
639 8 1 37.709 17.022 32.015 
640 8 1 36.110 19.010 32.185 
641 8 1 34.561 20.978 32.757 
642 8 1 35.129 21.871 34.826 
643 8 1 35.624 21.252 37.374 
644 8 1 35.845 20.354 39.703 
645 8 1 35.877 19.667 42.164 
646 8 1 34.369 17.957 42.639 
647 8 1 33.139 15.750 42.587 
648 8 1 31.680 13.698 42.510 
649 8 1 29.712 12.562 42.150 
650 8 1 27.306 12.365 41.311 
651 8 1 24.964 11.892 40.574 
652 8 1 22.618 11.287 39.820 
653 8 1 22.047 12.638 37.939 
654 8 1 22.432 13.591 35.599 
655 8 1 22.378 14.618 33.226 
656 8 1 22.265 16.321 31.604 
657 8 1 22.266 18.694 30.641 
658 8 1 24.371 20.168 30.352 
659 8 1 26.681 20.504 30.316 
660 8 1 28.033 20.342 28.150 
661 8 1 29.605 18.486 27.276 
662 8 1 31.449 16.890 26.585 
663 8 1 33.268 15.272 25.621 
664 8 1 33.581 14.905 23.156 
665 8 1 34.175 14.792 20.741 
666 8 1 35.089 15.227 18.386 
667 8 1 35.788 16.412 16.246 
668 8 1 36.107 17.781 14.197 
669 8 1 36.878 19.921 12.953 
670 8 1 38.989 20.343 11.597 
671 8 1 41.157 20.818 10.272 
672 8 1 43.388 20.814  8.881 
673 8 1 45.516 20.628  7.467 
674 8 1 47.554 20.284  5.970 
675 9 1 48.211 23.541 32.058 
676 9 1 49.234 24.240 34.060 
677 9 1 50.340 25.290 35.772 
678 9 1 51.454 27.353 36.780 
679 9 1 -2.289 29.357 37.523 
680 9 1 51.965 31.866 37.696 
681 9 1 -2.646 33.606 35.781 
682 9 1 -2.183 35.353 33.829 
683 9 1 -2.093 37.023 31.834 
684 9 1 -0.859 39.342 31.715 
685 9 1 -0.262 39.996 29.546 
686 9 1  0.285 40.366 27.326 
687 9 1  0.354 41.537 25.049 
688 9 1 -1.450 42.851 24.558 
689 9 1 51.310 43.152 23.829 
690 9 1 48.797 42.945 23.069 
691 9 1 47.014 41.502 24.055 
692 9 1 45.063 40.082 25.010 
693 9 1 43.258 39.609 26.473 
694 9 1 41.550 39.846 28.334 
695 9 1 39.242 39.666 28.740 
696 9 1 37.635 37.987 28.804 
697 9 1 36.633 35.853 29.761 
698 9 1 35.827 33.639 30.859 
699 9 1 36.872 32.578 32.992 
700 9 1 37.317 32.512 35.238 
701 9 1 35.687 31.496 36.631 
702 9 1 36.106 30.960 39.039 
703 9 1 36.399 30.261 41.547 
704 9 1 37.219 29.631 43.972 
705 9 1 38.046 29.222 46.401 
706 9 1 38.900 29.060 48.771 
707 9 1 39.562 29.541 50.959 
708 9 1 40.376 29.982 -1.658 
709 9 1 39.881 28.133  0.002 
710 9 1 41.264 27.646  2.163 
711 9 1 42.443 28.598  3.908 
712 9 1 44.038 29.890  5.191 
713 9 1 45.884 30.513  6.790 
714 9 1 47.578 30.841  8.732 
715 9 1 48.158 31.366 10.858 
716 9 1 47.580 32.333 13.132 
717 9 1 47.752 33.280 15.337 
718 9 1 46.699 31.906 16.799 
719 9 1 45.476 30.270 17.672 
720 9 1 44.960 27.779 17.905 
721 9 1 46.741 25.919 18.292 
722 9 1 48.804 24.607 17.898 
723 9 1 49.691 23.985 15.508 
724 9 1 50.397 21.826 14.304 
725 9 1 -2.480 21.728 14.330 
726 9 1 -2.328 19.598 15.600 
727 9 1 50.828 18.480 16.702 
728 9 1 49.518 17.387 18.213 
729 9 1 48.529 16.991 20.329 
730 9 1 46.628 17.115 22.014 
731 9 1 44.624 17.590 23.521 
732 9 1 43.539 18.778 25.118 
733 9 1 43.493 20.798 26.680 
734 9 1 43.448 23.104 28.082 
735 9 1 42.635 25.427 27.146 
736 9 1 41.800 27.727 26.277 
737 9 1 41.000 29.594 24.913 
738 9 1 42.156 31.283 23.392 
739 9 1 43.270 33.180 22.186 
740 9 1 44.230 34.923 20.609 
741 9 1 43.027 35.710 18.420 
742 9 1 44.280 37.750 17.963 
743 9 1 45.523 39.788 18.413 
744 9 1 45.806 42.217 19.487 
745 9 1 45.250 44.611 20.390 
746 9 1 45.216  6.391 21.045 
747 9 1 45.220  8.812 21.937 
748 9 1 45.057 10.923 23.190 
749 9 1 44.865 12.748 25.049 
750 9 1 44.803 14.461 26.974 
751 9 1 45.614 16.038 28.791 
752 9 1 46.439 17.528 30.661 
753 10 1 46.731 27.354 13.051 
754 10 1 44.187 27.299 13.263 
755 10 1 41.673 27.299 13.635 
756 10 1 39.068 27.269 13.831 
757 10 1 36.873 26.671 13.266 
758 10 1 35.168 25.091 12.268 
759 10 1 33.423 23.283 11.397 
760 10 1 34.480 21.818  9.867 
761 10 1 35.879 21.432  7.727 
762 10 1 35.696 22.917  5.631 
763 10 1 34.963 24.376  3.685 
764 10 1 34.834 23.561  1.224 
765 10 1 34.670 22.583 -1.097 
766 10 1 35.450 21.176 51.988 
767 10 1 36.109 18.806 -1.904 
768 10 1 38.227 17.867 -0.672 
769 10 1 40.297 16.809  0.491 
770 10 1 42.484 15.903  1.517 
771 10 1 43.043 13.559  2.391 
772 10 1 43.854 11.918  4.083 
773 10 1 45.199  9.782  3.705 
774 10 1 47.060  7.940  3.640 
775 10 1 48.118  6.334  5.364 
776 10 1 49.945  4.555  4.742 
777 10 1 51.964 43.799  3.965 
778 10 1 -1.497 42.891  2.480 
779 10 1 -1.432 44.653  0.552 
780 10 1 -1.394  6.229 -0.299 
781 10 1 51.914  7.848  0.411 
782 10 1 50.124  9.326  0.050 
783 10 1 47.997 10.154 -0.258 
784 10 1 46.783 12.466 -0.051 
785 10 1 46.902 14.805  0.114 
786 10 1 46.910 17.101  0.564 
787 10 1 45.947 19.480  0.923 
788 10 1 44.295 21.162  0.459 
789 10 1 42.160 22.296 -0.532 
790 10 1 40.192 23.392 -1.895 
791 10 1 38.394 24.253 51.236 
792 10 1 36.547 25.190 49.652 
793 10 1 34.901 26.196 47.856 
794 10 1 33.457 27.238 45.968 
795 10 1 31.304 28.645 46.002 
796 10 1 29.607 30.495 45.594 
797 10 1 30.445 31.766 43.780 
798 10 1 31.747 33.359 42.275 
799 10 1 33.017 34.755 40.563 
800 10 1 34.081 36.344 38.874 
801 10 1 35.631 37.660 37.397 
802 10 1 37.228 38.941 35.981 
803 10 1 38.714 40.476 34.477 
804 10 1 39.476 42.919 34.731 
805 10 1 40.204  4.704 34.782 
806 10 1 40.837  7.227 34.591 
807 10 1 41.240  9.675 34.527 
808 10 1 41.237 10.888 32.262 
809 10 1 41.207 12.153 30.060 
810 10 1 41.147 12.154 27.772 
811 10 1 40.512 10.752 25.779 
812 10 1 39.672  9.205 23.913 
813 10 1 38.676  7.624 22.176 
814 10 1 36.958  6.149 21.570 
815 10 1 34.583  5.207 21.852 
816 10 1 32.509  4.369 21.465 
817 10 1 30.705 44.168 20.231 
818 10 1 30.787 45.075 17.783 
819 10 1 28.673 45.139 16.229 
820 10 1 26.642 44.423 15.168 
821 10 1 24.050  3.933 15.296 
822 10 1 23.057 42.645 14.409 
823 10 1 22.788 40.741 12.728 
824 10 1 22.361 38.822 11.131 
825 10 1 21.672 37.608  8.961 
826 10 1 21.200 36.473  6.728 
827 10 1 20.504 35.668  4.444 
828 10 1 19.664 34.982  2.139 
829 10 1 18.889 34.158 -0.200 
830 10 1 18.397 33.396 -2.626 
831 11 1  2.698 42.049 12.047 
832 11 1  2.551 44.241 13.459 
833 11 1  1.735  5.108 15.070 
834 11 1  0.882  6.324 16.923 
835 11 1  1.633  7.500 18.661 
836 11 1  3.385  7.701 20.684 
837 11 1  5.138  7.732 22.629 
838 11 1  6.902  7.614 24.450 
839 11 1  8.344  7.670 26.562 
840 11 1  8.420  5.738 28.310 
841 11 1  8.449  3.947 30.079 
842 11 1  8.545 43.102 32.066 
843 11 1  8.574 41.698 34.209 
844 11 1  8.236 40.634 36.603 
845 11 1  9.162 38.514 37.852 
846 11 1  7.869 37.462 39.574 
847 11 1  6.062 36.378 40.836 
848 11 1  4.713 35.660 42.604 
849 11 1  4.420 35.904 45.179 
850 11 1  6.215 35.624 46.600 
851 11 1  7.438 34.458 48.548 
852 11 1  8.324 33.549 50.733 
853 11 1  9.206 33.161 -1.599 
854 11 1 10.264 33.059  0.799 
855 11 1  9.388 34.144  2.932 
856 11 1  8.875 35.971  4.441 
857 11 1  7.483 37.808  4.761 
858 11 1  6.312 38.528  2.525 
859 11 1  5.398 38.954  0.199 
860 11 1  2.788 38.782 -0.404 
861 11 1  1.501 40.129 -2.205 
862 11 1  0.206 41.826 51.242 
863 11 1 -0.388 43.197 49.469 
864 11 1 -0.381 44.309 47.282 
865 11 1 -0.808  5.654 46.298 
866 11 1 -2.275  7.704 45.967 
867 11 1 52.248  9.606 44.690 
868 11 1 -2.228  9.068 42.235 
869 11 1 -1.644  7.873 40.279 
870 11 1 -1.116  5.783 38.844 
871 11 1 -0.551  3.843 37.315 
872 11 1 -0.821 42.141 36.961 
873 11 1 -1.864 40.109 37.247 
874 11 1 -2.570 38.204 38.803 
875 11 1 51.439 36.373 40.280 
876 11 1 49.892 37.246 41.634 
877 11 1 48.062 38.888 42.192 
878 11 1 47.136 40.762 40.818 
879 11 1 46.919 42.954 40.216 
880 11 1 47.865  4.174 39.338 
881 11 1 49.658  5.400 37.940 
882 11 1 49.942  5.070 35.349 
883 11 1 49.322  4.325 33.186 
884 11 1 49.862 42.440 33.204 
885 11 1 49.996 40.180 33.827 
886 11 1 49.205 37.966 34.991 
887 11 1 48.509 35.684 35.916 
888 11 1 47.201 34.737 37.935 
889 11 1 44.904 34.903 37.885 
890 11 1 43.999 36.490 39.776 
891 11 1 43.323 36.891 41.986 
892 11 1 42.869 35.977 44.452 
893 11 1 43.872 36.938 46.371 
894 11 1 44.198 38.475 48.376 
895 11 1 43.565 40.987 48.677 
896 11 1 43.242 43.453 49.306 
897 11 1 43.316  5.082 50.284 
898 11 1 42.864  7.155 51.646 
899 11 1 41.994  9.084 -1.600 
900 11 1 40.873 11.060 -0.809 
901 11 1 39.246 13.006 -0.995 
902 11 1 38.921 13.744 51.419 
903 11 1 38.010 14.792 49.648 
904 11 1 35.990 16.033 48.417 
905 11 1 34.010 17.083 47.136 
906 11 1 32.918 19.408 47.268 
907 11 1 31.596 21.661 47.179 
908 11 1 29.539 21.879 45.588 
909 12 1  9.579 10.669  4.621 
910 12 1 11.864 11.888  4.902 
911 12 1 13.724 13.041  4.463 
912 12 1 14.959 14.201  2.597 
913 12 1 16.365 15.269  0.669 
914 12 1 14.973 15.465 -1.235 
915 12 1 13.339 17.536 -1.521 
916 12 1 12.151 19.768 -1.623 
917 12 1 10.816 22.040 -1.562 
918 12 1 10.785 24.308 -1.403 
919 12 1 11.995 26.535 -0.816 
920 12 1 13.486 28.587 -0.351 
921 12 1 14.407 30.732  0.275 
922 12 1 14.788 32.626  1.972 
923 12 1 15.172 34.491  3.703 
924 12 1 15.998 36.081  5.447 
925 12 1 16.929 37.589  7.330 
926 12 1 17.778 39.413  8.911 
927 12 1 18.760 41.358 10.246 
928 12 1 19.420 43.503 11.526 
929 12 1 19.182  5.193 11.614 
930 12 1 18.885  7.547 10.696 
931 12 1 16.773  8.272  9.138 
932 12 1 14.846  8.619  7.648 
933 12 1 13.125  7.800  6.490 
934 12 1 11.281  6.265  5.633 
935 12 1  9.058  6.070  5.507 
936 12 1  6.583  6.533  6.110 
937 12 1  5.098  8.566  6.678 
938 12 1  3.627 10.662  7.364 
939 12 1  2.096 12.314  6.875 
940 12 1  0.416 13.832  6.341 
941 12 1 -1.698 15.189  6.977 
942 12 1 51.222 16.180  7.362 
943 12 1 50.054 17.335  9.347 
944 12 1 48.827 18.219 11.361 
945 12 1 47.360 19.678 12.474 
946 12 1 45.625 21.465 12.967 
947 12 1 43.769 22.576 13.871 
948 12 1 41.879 23.056 15.489 
949 12 1 39.995 23.834 17.122 
950 12 1 37.650 22.537 17.328 
951 12 1 35.373 21.349 17.723 
952 12 1 33.268 19.948 18.389 
953 12 1 31.189 18.629 19.159 
954 12 1 30.465 18.035 21.626 
955 12 1 28.726 19.511 22.974 
956 12 1 26.282 18.673 23.477 
957 12 1 24.119 19.762 24.496 
958 12 1 21.664 20.676 24.834 
959 12 1 20.028 19.821 26.624 
960 12 1 19.322 17.528 27.072 
961 12 1 19.084 15.136 27.988 
962 12 1 18.871 14.258 30.487 
963 12 1 18.412 13.388 32.886 
964 12 1 18.191 12.407 35.280 
965 12 1 17.914 11.081 37.467 
966 12 1 18.174  9.905 39.802 
967 12 1 18.430  8.729 41.990 
968 12 1 18.080  6.357 42.681 
969 12 1 18.086  3.873 43.258 
970 12 1 17.871 42.079 43.816 
971 12 1 16.587 40.235 44.340 
972 12 1 14.523 39.008 45.256 
973 12 1 13.569 37.330 46.310 
974 12 1 12.844 35.492 47.613 
975 12 1 13.949 33.081 47.512 
976 12 1 13.826 31.563 49.578 
977 12 1 13.942 29.005 49.475 
978 12 1 14.165 26.462 49.404 
979 12 1 14.135 23.957 49.641 
980 12 1 15.684 22.468 51.112 
981 12 1 17.347 21.063 52.203 
982 12 1 19.052 19.656 -1.286 
983 12 1 20.628 18.119  0.102 
984 12 1 20.585 15.677  0.744 
985 12 1 20.502 13.185  1.491 
986 12 1 22.177 12.225  3.252 