LAMMPS data file generated by aa2cg.

2000 atoms
1 atom types
1975 bonds
1 bond types
1950 angles
1 angle types
1925 dihedrals
1 dihedral types

 0.000 56.392 xlo xhi
 0.000 56.796 ylo yhi
 0.000 38.250 zlo zhi

Masses

1 24.022

Atoms # molecular

1 1 1 47.786  3.781 10.388 
2 1 1 -2.642  9.521 27.706 
3 2 1 25.681 26.413 34.848 
4 2 1 -2.693 33.383 37.776 
5 3 1 11.229 34.267 14.907 
6 3 1  4.033 31.424 35.645 
7 4 1 24.017  8.210 10.409 
8 4 1 24.434 53.054 11.449 
9 5 1 19.717  5.392 22.032 
10 5 1 43.218  7.329 43.571 
11 6 1 29.226  9.007 20.566 
12 6 1 26.790 17.350 13.217 
13 7 1  6.815 14.332 27.023 
14 7 1 23.940  1.886 11.606 
15 8 1  0.320 16.096  8.511 
16 8 1 43.095 43.206 14.862 
17 9 1 53.290 46.645 25.990 
18 9 1  4.956 12.319 36.446 
19 10 1  0.940 31.151  7.158 
20 10 1 25.203  5.103 16.136 
21 11 1 33.151 14.016 13.313 
22 11 1 51.738 24.082 15.884 
23 12 1 20.711 50.784 42.982 
24 12 1  1.033 12.845 38.732 
25 13 1 20.898 46.876 30.885 
26 13 1 16.488 47.588 34.237 
27 14 1  8.187 41.039 19.121 
28 14 1 -1.535 51.251 11.249 
29 15 1 50.980 51.449 37.166 
30 15 1 50.295 45.755 17.643 
31 16 1 -2.922 21.814 35.832 
32 16 1 36.501 49.985 37.636 
33 17 1 14.347  8.563 21.822 
34 17 1 33.014 18.197 18.158 
35 18 1  6.709 28.634 16.050 
36 18 1 49.919 36.560 41.296 
37 19 1 42.173 42.604 34.662 
38 19 1 33.213 33.720 40.422 
39 20 1 19.680 28.769 11.995 
40 20 1 -0.149  0.138 27.747 
41 21 1 16.638 30.999 11.508 
42 21 1 27.459  1.729 33.656 
43 22 1 24.524 20.705 41.293 
44 22 1  0.656  3.051 32.408 
45 23 1 36.744 -2.315 13.607 
46 23 1  7.284 31.752 22.747 
47 24 1  8.810 42.010 25.367 
48 24 1  2.348 20.215  9.196 
49 25 1  4.516 13.700  5.381 
50 25 1 29.775  9.354 27.457 
51 1 1 48.958  6.083 10.304 
52 1 1 51.307  6.110 10.322 
53 1 1 -2.786  5.915 11.426 
54 1 1 -0.536  6.003 11.295 
55 1 1  1.515  6.892 10.118 
56 1 1  3.378  8.236  9.066 
57 1 1  4.003  8.589  6.644 
58 1 1  4.684  8.763 42.403 
59 1 1  5.146  8.758 39.957 
60 1 1  4.783  8.254 37.708 
61 1 1  3.543  7.279 35.730 
62 1 1  1.076  7.451 35.126 
63 1 1 -1.080  8.334 35.243 
64 1 1 -1.576 10.660 34.115 
65 1 1 -3.241 12.081 33.506 
66 1 1 50.794 13.013 33.253 
67 1 1 48.753 13.208 34.816 
68 1 1 47.333 11.440 35.340 
69 1 1 47.264  8.988 36.165 
70 1 1 47.044  6.483 36.932 
71 1 1 46.752  4.012 37.498 
72 1 1 45.793  1.934 38.125 
73 1 1 43.932  0.671 37.646 
74 1 1 42.275 -0.299 35.791 
75 1 1 40.694 -1.224 33.979 
76 1 1 39.164 -2.470 32.329 
77 1 1 37.716 -3.817 30.753 
78 1 1 36.261 -2.958 28.738 
79 1 1 33.850 -3.278 27.912 
80 1 1 31.642 -3.605 26.480 
81 1 1 29.523 -3.780 25.084 
82 1 1 28.458 50.671 24.856 
83 1 1 27.471 49.578 22.812 
84 1 1 26.351 48.482 20.734 
85 1 1 25.842 46.171 21.193 
86 1 1 25.925 44.095 22.717 
87 1 1 26.772 44.632 25.028 
88 1 1 28.608 43.578 26.493 
89 1 1 30.452 42.325 27.813 
90 1 1 32.573 43.215 29.021 
91 1 1 33.825 44.870 30.162 
92 1 1 34.204 47.268 31.227 
93 1 1 35.802 48.669 32.069 
94 1 1 38.129 49.137 32.953 
95 1 1 40.417 47.958 32.835 
96 1 1 42.754 46.807 32.730 
97 1 1 45.140 45.732 32.559 
98 1 1 47.367 44.480 32.264 
99 1 1 49.578 43.159 32.100 
100 1 1 50.855 41.262 32.562 
101 1 1 51.348 40.698 35.063 
102 1 1 52.702 39.163 36.283 
103 1 1 -1.451 37.999 36.809 
104 1 1  0.840 37.091 37.115 
105 1 1  3.302 36.340 37.367 
106 1 1  5.269 38.091 37.603 
107 1 1  7.120 39.481 38.299 
108 1 1  8.535 40.997 39.382 
109 1 1  8.845 43.512 39.705 
110 1 1  8.619 46.088 40.091 
111 1 1  8.215 48.539 40.711 
112 1 1  7.102 50.311 41.720 
113 1 1  5.199 51.498 42.898 
114 1 1  3.214 -3.898  5.548 
115 1 1  1.181 -2.366  6.232 
116 1 1 -1.336 -2.808  6.577 
117 1 1 -3.159 -3.024  7.867 
118 1 1 51.708 -2.747  9.938 
119 1 1 50.220 -2.338 11.990 
120 1 1 48.400 -1.330 13.218 
121 1 1 48.792  0.940 13.732 
122 1 1 50.030  2.891 14.873 
123 1 1 51.303  4.963 15.930 
124 1 1 52.981  4.834 17.847 
125 1 1 -1.881  4.324 19.770 
126 1 1 -1.590  5.335 22.103 
127 1 1 -2.157  6.637 23.894 
128 1 1 -2.666  8.076 25.641 
129 2 1 25.151 28.987 35.109 
130 2 1 24.161 31.360 35.410 
131 2 1 22.289 32.741 35.632 
132 2 1 19.713 32.825 35.312 
133 2 1 17.327 33.345 35.053 
134 2 1 14.870 34.013 34.974 
135 2 1 12.771 34.013 33.928 
136 2 1 11.940 34.509 31.736 
137 2 1 11.981 35.540 29.351 
138 2 1 11.921 36.302 26.881 
139 2 1 11.924 37.940 24.767 
140 2 1 13.727 37.468 23.460 
141 2 1 15.398 36.136 22.026 
142 2 1 15.002 34.297 20.345 
143 2 1 14.842 32.578 18.353 
144 2 1 13.909 31.310 16.592 
145 2 1 12.272 30.094 15.061 
146 2 1 10.432 29.335 13.505 
147 2 1  8.522 28.729 11.956 
148 2 1  6.600 28.339 10.316 
149 2 1  4.148 28.300 10.942 
150 2 1  2.497 28.622 12.421 
151 2 1  1.689 28.816 14.854 
152 2 1  2.444 27.488 16.976 
153 2 1  3.258 26.227 19.069 
154 2 1  5.266 26.446 20.620 
155 2 1  7.582 26.358 21.924 
156 2 1  7.924 26.474 24.539 
157 2 1  7.145 26.579 26.784 
158 2 1  5.250 26.308 28.430 
159 2 1  3.097 26.318 29.793 
160 2 1  0.813 26.469 31.074 
161 2 1 -1.424 26.374 32.346 
162 2 1 -3.460 26.255 33.814 
163 2 1 50.681 26.466 35.049 
164 2 1 48.377 26.334 33.864 
165 2 1 46.197 25.724 32.596 
166 2 1 43.964 25.500 31.236 
167 2 1 42.033 27.244 31.347 
168 2 1 41.021 29.122 32.209 
169 2 1 40.145 30.800 33.951 
170 2 1 39.490 33.011 34.548 
171 2 1 38.828 35.345 33.918 
172 2 1 40.504 37.158 33.009 
173 2 1 42.411 38.404 32.782 
174 2 1 44.926 38.299 33.230 
175 2 1 47.495 38.133 33.740 
176 2 1 48.886 35.952 33.881 
177 2 1 50.479 35.199 31.862 
178 2 1 53.071 35.065 32.056 
179 2 1 -0.744 35.307 32.084 
180 2 1  1.833 35.380 32.418 
181 2 1  4.320 35.413 33.057 
182 2 1  6.740 35.129 33.913 
183 2 1  8.727 36.033 34.766 
184 2 1 10.261 38.007 35.404 
185 2 1 12.450 39.039 35.944 
186 2 1 14.700 38.666 34.804 
187 2 1 17.206 39.308 34.177 
188 2 1 19.487 38.440 35.016 
189 2 1 21.054 37.533 36.377 
190 2 1 21.740 36.170 38.418 
191 2 1 22.790 34.825 40.415 
192 2 1 24.226 34.054 42.454 
193 2 1 23.632 32.068 44.043 
194 2 1 23.285 29.950  6.411 
195 2 1 25.239 28.524  7.199 
196 2 1 27.477 28.392  5.894 
197 2 1 29.865 28.461 42.991 
198 2 1 32.194 28.818 41.880 
199 2 1 34.576 28.999 40.811 
200 2 1 36.917 29.272 39.740 
201 2 1 39.399 29.796 38.928 
202 2 1 41.943 30.337 38.469 
203 2 1 44.319 31.196 37.931 
204 2 1 46.727 30.270 37.403 
205 2 1 48.869 31.716 37.203 
206 2 1 51.214 32.635 37.490 
207 3 1  8.976 34.690 14.170 
208 3 1  8.523 35.876 11.929 
209 3 1  8.112 37.234  9.734 
210 3 1  5.882 38.366  8.911 
211 3 1  3.812 39.575  8.131 
212 3 1  1.903 41.311  7.780 
213 3 1 -0.134 42.778  7.918 
214 3 1 -2.425 43.382  8.137 
215 3 1 51.810 43.926  8.870 
216 3 1 50.058 45.036 10.386 
217 3 1 48.265 46.243 11.733 
218 3 1 46.282 47.337 13.076 
219 3 1 44.148 48.220 13.204 
220 3 1 42.285 49.525 12.666 
221 3 1 41.061 51.831 12.246 
222 3 1 40.272 52.975 10.079 
223 3 1 40.118 -2.756  7.685 
224 3 1 39.299 -0.447  7.123 
225 3 1 38.925  2.160  6.944 
226 3 1 38.926  4.684  7.086 
227 3 1 39.146  7.273  7.289 
228 3 1 38.753  9.381  8.254 
229 3 1 37.480 11.232  9.527 
230 3 1 37.103 13.352 10.437 
231 3 1 38.086 14.135 12.747 
232 3 1 39.270 14.831 14.963 
233 3 1 41.719 15.372 15.255 
234 3 1 43.736 16.567 14.838 
235 3 1 45.699 17.599 13.537 
236 3 1 45.981 19.198 11.837 
237 3 1 44.874 18.962  9.520 
238 3 1 44.175 18.844  7.004 
239 3 1 43.876 18.999 42.762 
240 3 1 43.851 18.253 40.494 
241 3 1 44.194 16.537 38.703 
242 3 1 44.335 15.749 36.497 
243 3 1 44.842 16.070 34.070 
244 3 1 44.313 16.784 31.965 
245 3 1 43.565 19.174 31.825 
246 3 1 42.961 21.598 31.847 
247 3 1 40.689 22.690 31.601 
248 3 1 38.209 23.216 31.468 
249 3 1 37.281 25.509 32.157 
250 3 1 36.367 27.613 33.221 
251 3 1 35.149 29.492 34.460 
252 3 1 35.124 31.214 35.951 
253 3 1 36.178 32.959 37.479 
254 3 1 37.906 34.469 38.458 
255 3 1 39.285 34.136 40.531 
256 3 1 40.814 33.841 42.594 
257 3 1 41.263 33.370  6.677 
258 3 1 40.970 32.775  9.176 
259 3 1 39.149 33.058 10.904 
260 3 1 37.952 35.023 11.532 
261 3 1 37.069 37.075 10.882 
262 3 1 36.701 39.163  9.368 
263 3 1 36.100 41.235  8.185 
264 3 1 34.958 42.861  6.982 
265 3 1 34.138 42.106 42.909 
266 3 1 33.048 40.055 42.947 
267 3 1 33.149 37.468 43.176 
268 3 1 34.814 36.084  6.597 
269 3 1 35.991 33.745  6.452 
270 3 1 36.854 31.225  6.205 
271 3 1 37.902 28.935  5.880 
272 3 1 40.254 29.020  6.501 
273 3 1 41.845 28.867 42.762 
274 3 1 44.293 29.730 42.859 
275 3 1 46.581 30.812 43.349 
276 3 1 48.888 31.808  5.941 
277 3 1 51.010 32.836  7.047 
278 3 1 52.860 33.118  5.738 
279 3 1 -3.256 31.919 42.014 
280 3 1 -4.052 29.372 41.436 
281 3 1 52.865 29.121 39.168 
282 3 1 -1.917 29.098 37.208 
283 3 1 -0.230 29.404 35.203 
284 3 1  1.516 31.379 35.011 
285 4 1 25.259 10.073  9.222 
286 4 1 27.553 10.032  9.166 
287 4 1 29.992 10.448  9.850 
288 4 1 32.185  9.988 10.532 
289 4 1 34.099  8.586 11.706 
290 4 1 36.173  8.371 12.845 
291 4 1 38.105  8.221 14.132 
292 4 1 39.681  6.602 14.983 
293 4 1 41.162  5.418 16.190 
294 4 1 42.052  4.496 18.457 
295 4 1 43.152  3.575 20.596 
296 4 1 44.245  2.725 22.751 
297 4 1 45.055  1.693 24.926 
298 4 1 46.668  2.234 26.574 
299 4 1 47.879  0.350 27.779 
300 4 1 50.051  0.043 29.032 
301 4 1 52.201 -0.493 30.291 
302 4 1 -1.916 -1.021 31.232 
303 4 1  0.398 -1.578 32.028 
304 4 1  2.856 -1.936 32.765 
305 4 1  4.763 -2.411 31.179 
306 4 1  5.698 -2.607 28.979 
307 4 1  5.600 -2.515 26.397 
308 4 1  3.469 -2.808 24.917 
309 4 1  1.348 -3.618 24.314 
310 4 1 -0.676 52.478 23.567 
311 4 1 -2.225 51.648 21.726 
312 4 1 -3.537 51.063 19.623 
313 4 1 51.737 50.513 17.354 
314 4 1 50.750 50.959 14.991 
315 4 1 50.842 49.180 13.083 
316 4 1 50.325 49.570 10.555 
317 4 1 49.985 50.141  8.008 
318 4 1 49.141 50.534  5.624 
319 4 1 47.906 50.910 41.554 
320 4 1 47.532 49.643 39.365 
321 4 1 47.123 48.232 37.234 
322 4 1 48.321 48.972 35.319 
323 4 1 50.192 47.298 34.758 
324 4 1 52.374 46.970 36.063 
325 4 1 -1.935 46.552 37.603 
326 4 1 -0.027 47.807 36.786 
327 4 1  1.297 49.786 35.656 
328 4 1  0.051 50.527 33.981 
329 4 1 -1.992 50.655 32.404 
330 4 1 51.985 51.601 32.667 
331 4 1 49.902 53.064 32.410 
332 4 1 48.104 -1.905 32.366 
333 4 1 46.104 -0.270 32.231 
334 4 1 44.197 -0.045 30.421 
335 4 1 42.334 -0.005 28.610 
336 4 1 39.960  0.477 28.977 
337 4 1 37.659  1.433 29.553 
338 4 1 35.422  1.514 30.401 
339 4 1 33.335  0.374 31.470 
340 4 1 31.548  0.325 32.961 
341 4 1 32.068 -0.743 35.269 
342 4 1 32.888 -1.766 37.559 
343 4 1 33.976 -2.918 39.536 
344 4 1 35.718 52.782 41.267 
345 4 1 35.603 52.207 43.756 
346 4 1 35.599 51.603  8.031 
347 4 1 35.272 50.921 10.464 
348 4 1 36.802 49.506 12.110 
349 4 1 37.844 47.618 12.826 
350 4 1 38.565 45.189 12.805 
351 4 1 39.378 42.748 12.526 
352 4 1 38.567 41.161 14.042 
353 4 1 37.342 40.362 15.827 
354 4 1 35.265 39.754 17.208 
355 4 1 33.093 41.155 17.571 
356 4 1 31.082 42.750 18.015 
357 4 1 29.863 44.816 18.071 
358 4 1 29.196 47.288 17.467 
359 4 1 28.851 49.801 17.174 
360 4 1 28.594 52.350 17.044 
361 4 1 27.492 -3.690 15.066 
362 4 1 25.595 -3.107 13.477 
363 5 1 17.698  3.961 22.211 
364 5 1 15.866  2.127 22.486 
365 5 1 13.883  2.262 24.079 
366 5 1 12.292  2.709 26.011 
367 5 1 10.963  2.976 28.212 
368 5 1 10.202  3.497 30.576 
369 5 1  8.765  2.117 32.191 
370 5 1  7.365  0.421 33.610 
371 5 1  5.795  0.942 35.527 
372 5 1  3.527  0.902 36.246 
373 5 1  1.383  1.728 36.171 
374 5 1 -0.670  2.747 36.177 
375 5 1 -2.764  2.918 37.121 
376 5 1 51.925  3.445 38.910 
377 5 1 50.097  3.364 40.706 
378 5 1 48.127  3.138 42.355 
379 5 1 46.006  2.625 42.942 
380 5 1 43.825  2.081 42.415 
381 5 1 41.578  3.154 41.551 
382 5 1 40.778  4.932 39.748 
383 5 1 39.834  4.065 37.485 
384 5 1 40.324  5.620 35.848 
385 5 1 41.352  7.688 35.324 
386 5 1 42.593  9.188 37.021 
387 5 1 43.776 10.846 38.560 
388 5 1 44.987 12.250 40.369 
389 5 1 45.994 13.479 42.413 
390 5 1 46.866 14.722  6.191 
391 5 1 46.316 14.172  8.659 
392 5 1 46.084 12.661 10.325 
393 5 1 48.454 11.506 10.484 
394 5 1 50.995 11.038  9.977 
395 5 1 -3.017 10.793 10.189 
396 5 1 -0.788 10.420 11.202 
397 5 1  1.476 10.293 12.271 
398 5 1  1.984 10.879 14.806 
399 5 1  3.000 11.503 17.061 
400 5 1  4.703 10.074 17.837 
401 5 1  6.814  8.647 17.629 
402 5 1  7.754  6.622 17.681 
403 5 1  7.479  4.057 17.509 
404 5 1  5.218  2.918 18.297 
405 5 1  2.962  2.061 19.219 
406 5 1  1.635  1.036 20.861 
407 5 1  2.167  1.958 22.874 
408 5 1  2.089  3.725 24.671 
409 5 1  1.836  5.458 26.471 
410 5 1  1.770  7.210 28.357 
411 5 1  1.407  8.974 30.298 
412 5 1  2.079 10.900 31.505 
413 5 1  2.302 12.381 29.665 
414 5 1  1.748 13.746 27.495 
415 5 1  1.082 13.035 25.039 
416 5 1  0.449 12.231 22.668 
417 5 1 -0.179 11.180 20.463 
418 5 1 -1.182 10.254 18.226 
419 5 1 -1.953  9.335 15.953 
420 5 1 52.058 10.006 14.837 
421 5 1 49.819 10.263 14.665 
422 5 1 47.373  9.468 15.053 
423 5 1 45.857  7.995 13.596 
424 5 1 45.689  5.922 14.530 
425 5 1 46.399  4.152 16.119 
426 5 1 47.053  2.848 18.299 
427 5 1 49.278  2.958 19.625 
428 5 1 49.624  4.454 21.622 
429 5 1 49.046  5.920 23.264 
430 5 1 47.916  7.027 25.029 
431 5 1 49.514  7.292 27.130 
432 5 1 50.511  7.449 29.439 
433 5 1 50.761  7.568 31.992 
434 5 1 51.254  7.851 34.422 
435 5 1 51.316  7.939 37.027 
436 5 1 50.589  7.895 39.525 
437 5 1 50.959  9.065 41.696 
438 5 1 49.209  9.731 43.380 
439 5 1 47.159  9.864  6.186 
440 5 1 44.867  8.942  6.686 
441 6 1 29.043 10.244 22.898 
442 6 1 27.473 12.228 23.422 
443 6 1 26.370 14.458 23.728 
444 6 1 25.961 16.980 24.010 
445 6 1 25.344 19.174 23.695 
446 6 1 24.709 20.600 21.818 
447 6 1 25.182 21.846 19.671 
448 6 1 25.897 22.988 17.491 
449 6 1 25.588 22.044 15.197 
450 6 1 25.018 21.344 12.828 
451 6 1 26.020 22.529 10.799 
452 6 1 26.640 24.190  8.943 
453 6 1 26.648 23.793  6.364 
454 6 1 25.063 24.558 42.727 
455 6 1 23.580 25.219 40.694 
456 6 1 21.741 24.991 39.048 
457 6 1 20.083 24.339 37.312 
458 6 1 18.654 23.410 35.412 
459 6 1 16.795 22.137 34.202 
460 6 1 14.729 21.053 33.208 
461 6 1 12.644 20.070 32.069 
462 6 1 10.690 19.230 30.575 
463 6 1  8.712 17.871 31.569 
464 6 1  6.581 16.620 30.797 
465 6 1  4.620 15.912 32.365 
466 6 1  3.001 16.377 33.910 
467 6 1  2.019 18.016 35.664 
468 6 1  1.508 19.193 37.800 
469 6 1  1.484 19.943 40.268 
470 6 1  3.371 20.851 41.768 
471 6 1  5.445 21.082 43.315 
472 6 1  7.734 21.078  6.375 
473 6 1 10.089 21.385  7.273 
474 6 1 12.577 21.547  7.943 
475 6 1 14.939 22.129  8.841 
476 6 1 16.787 23.207 10.349 
477 6 1 18.509 24.031 11.945 
478 6 1 20.282 24.647 13.581 
479 6 1 20.441 23.355 15.755 
480 6 1 20.532 22.228 18.135 
481 6 1 20.005 20.763 19.900 
482 6 1 19.130 18.566 20.877 
483 6 1 18.171 16.110 21.498 
484 6 1 16.598 14.603 20.095 
485 6 1 15.017 12.861 19.233 
486 6 1 13.457 11.303 17.923 
487 6 1 11.927 11.055 16.171 
488 6 1 10.796 11.566 13.996 
489 6 1 12.081 12.004 11.782 
490 6 1 13.036 12.218  9.356 
491 6 1 14.023 12.744  6.906 
492 6 1 15.157 13.623  4.719 
493 6 1 16.634 14.454 41.285 
494 6 1 18.397 14.633 39.860 
495 6 1 19.919 13.612 38.107 
496 6 1 21.450 11.895 36.847 
497 6 1 20.787 10.254 34.979 
498 6 1 19.985  8.579 33.220 
499 6 1 19.101  6.888 31.459 
500 6 1 19.979  4.555 30.829 
501 6 1 19.009  2.585 31.822 
502 6 1 18.053  0.567 32.452 
503 6 1 19.701 -0.560 31.085 
504 6 1 21.639 -1.074 29.552 
505 6 1 23.493 -1.630 27.810 
506 6 1 24.681 -2.533 25.736 
507 6 1 25.292 -3.198 23.376 
508 6 1 25.703 -3.384 20.790 
509 6 1 24.621 -1.862 19.476 
510 6 1 22.713 -0.777 18.052 
511 6 1 21.362  0.941 17.463 
512 6 1 20.751  3.449 17.666 
513 6 1 20.775  5.790 17.311 
514 6 1 21.362  8.011 16.103 
515 6 1 21.856 10.161 14.687 
516 6 1 22.260 12.443 13.525 
517 6 1 24.291 13.128 12.161 
518 6 1 25.898 15.109 12.552 
519 7 1  6.033 13.804 24.656 
520 7 1  5.272 13.478 22.204 
521 7 1  3.954 14.115 20.370 
522 7 1  2.685 15.661 19.023 
523 7 1  2.509 16.839 17.035 
524 7 1  1.600 17.284 14.960 
525 7 1 -0.423 15.829 14.434 
526 7 1 -2.015 14.071 13.547 
527 7 1 51.884 14.594 13.058 
528 7 1 49.931 15.493 13.735 
529 7 1 48.661 14.749 15.894 
530 7 1 47.052 14.066 17.788 
531 7 1 45.205 13.616 19.660 
532 7 1 43.220 13.314 21.339 
533 7 1 41.889 15.106 22.370 
534 7 1 40.285 16.830 23.231 
535 7 1 39.557 19.008 23.730 
536 7 1 40.598 19.784 25.652 
537 7 1 41.702 19.671 27.670 
538 7 1 42.869 17.333 27.904 
539 7 1 44.131 14.994 27.964 
540 7 1 44.181 12.828 27.084 
541 7 1 44.025 11.076 25.445 
542 7 1 44.216  9.829 23.376 
543 7 1 44.911  8.705 21.162 
544 7 1 46.035  7.612 19.209 
545 7 1 48.598  7.889 18.903 
546 7 1 50.706  8.608 19.634 
547 7 1 52.173 10.035 21.260 
548 7 1 50.837 10.779 23.033 
549 7 1 48.683 11.749 23.999 
550 7 1 48.128 14.214 24.258 
551 7 1 47.269 16.639 24.568 
552 7 1 46.156 18.826 25.069 
553 7 1 46.036 21.129 25.446 
554 7 1 45.923 21.780 27.883 
555 7 1 47.828 21.612 29.612 
556 7 1 47.951 21.688 32.150 
557 7 1 47.180 21.527 34.422 
558 7 1 45.423 20.773 36.080 
559 7 1 42.902 21.383 36.416 
560 7 1 40.643 21.200 35.994 
561 7 1 38.693 20.050 34.726 
562 7 1 38.985 18.313 32.923 
563 7 1 38.845 16.464 31.079 
564 7 1 38.391 14.668 29.294 
565 7 1 38.066 13.055 27.409 
566 7 1 38.747 12.052 25.347 
567 7 1 39.279 11.230 23.283 
568 7 1 39.058 11.333 20.688 
569 7 1 39.972 11.183 18.596 
570 7 1 42.033 10.457 17.167 
571 7 1 42.897 11.899 15.561 
572 7 1 42.275 10.933 13.258 
573 7 1 42.205  9.214 11.839 
574 7 1 42.211  6.768 11.264 
575 7 1 42.718  4.465 10.398 
576 7 1 42.623  2.096  9.308 
577 7 1 43.895 -0.036  9.756 
578 7 1 45.014 -2.271 10.122 
579 7 1 45.933 -4.651  9.930 
580 7 1 44.485 50.091  9.156 
581 7 1 45.667 47.849  8.348 
582 7 1 45.833 46.429  6.438 
583 7 1 45.529 45.783 42.253 
584 7 1 43.976 46.748 40.439 
585 7 1 42.109 47.909 39.180 
586 7 1 41.223 49.890 38.450 
587 7 1 41.497 52.457 38.312 
588 7 1 40.863 -2.517 39.995 
589 7 1 39.329 -0.929 40.610 
590 7 1 37.274  0.704 40.471 
591 7 1 35.088  1.595 40.995 
592 7 1 32.836  1.621 42.181 
593 7 1 30.756  1.650 43.600 
594 7 1 28.365  1.707  6.415 
595 7 1 25.920  2.183  7.304 
596 7 1 24.488  2.107  9.082 
597 8 1  2.514 15.669  8.794 
598 8 1  5.047 16.193  8.940 
599 8 1  7.562 16.693  9.236 
600 8 1 10.164 16.566  9.267 
601 8 1 12.046 16.398 10.549 
602 8 1 13.188 15.913 12.840 
603 8 1 14.397 15.279 15.010 
604 8 1 15.546 16.869 16.382 
605 8 1 16.149 19.113 16.388 
606 8 1 15.721 20.309 14.132 
607 8 1 13.555 21.669 13.536 
608 8 1 11.254 22.040 12.426 
609 8 1  8.899 22.170 11.435 
610 8 1  6.592 22.952 10.521 
611 8 1  4.413 24.056  9.847 
612 8 1  2.061 24.673  8.892 
613 8 1 -0.191 25.245  8.994 
614 8 1 -1.039 27.526  9.472 
615 8 1 -1.622 29.848 10.142 
616 8 1 -2.139 32.315 10.488 
617 8 1 -2.991 34.807 10.843 
618 8 1 51.018 35.566 11.318 
619 8 1 48.623 36.327 11.705 
620 8 1 47.660 37.052 13.989 
621 8 1 46.594 37.307 16.346 
622 8 1 44.674 38.828 17.219 
623 8 1 42.551 40.118 18.279 
624 8 1 40.689 41.516 19.041 
625 8 1 38.436 42.605 19.407 
626 8 1 36.771 44.245 18.951 
627 8 1 35.900 46.483 17.938 
628 8 1 35.188 48.807 17.122 
629 8 1 34.270 50.967 16.007 
630 8 1 32.949 52.725 14.727 
631 8 1 31.641 -3.316 12.580 
632 8 1 30.089 -2.146 10.964 
633 8 1 28.273 -1.780  9.606 
634 8 1 26.814 -2.276  7.625 
635 8 1 25.173 -2.669  5.641 
636 8 1 24.844 51.998 42.396 
637 8 1 25.692 50.586 40.699 
638 8 1 25.520 51.420 38.368 
639 8 1 25.176 52.509 36.107 
640 8 1 24.740 -2.406 34.327 
641 8 1 23.497 -0.745 33.233 
642 8 1 23.448  1.617 33.006 
643 8 1 23.782  3.912 31.959 
644 8 1 24.152  6.240 30.794 
645 8 1 25.435  8.260 29.816 
646 8 1 26.145 10.627 28.804 
647 8 1 26.850 13.065 28.258 
648 8 1 27.458 15.140 28.996 
649 8 1 28.578 16.651 30.660 
650 8 1 29.401 18.065 32.542 
651 8 1 29.906 19.509 34.524 
652 8 1 30.713 20.932 36.499 
653 8 1 31.632 22.662 38.095 
654 8 1 32.646 24.703 38.639 
655 8 1 35.074 25.128 37.802 
656 8 1 37.453 25.689 37.017 
657 8 1 39.984 26.265 36.567 
658 8 1 42.575 25.744 36.112 
659 8 1 44.711 25.753 36.885 
660 8 1 46.515 26.366 38.619 
661 8 1 48.135 26.610 40.565 
662 8 1 49.473 26.558 42.733 
663 8 1 51.047 26.765  6.499 
664 8 1 50.563 27.939  8.804 
665 8 1 50.139 29.591 10.828 
666 8 1 49.777 31.283 12.846 
667 8 1 49.749 32.780 14.922 
668 8 1 51.876 33.823 15.966 
669 8 1 -2.841 35.675 16.390 
670 8 1 -2.277 37.712 15.441 
671 8 1 52.140 39.384 15.183 
672 8 1 50.144 41.128 15.058 
673 8 1 47.812 42.247 14.797 
674 8 1 45.374 43.075 14.285 
675 9 1 -0.570 46.870 25.880 
676 9 1  0.949 47.643 24.001 
677 9 1  2.464 48.652 22.154 
678 9 1  4.643 50.032 22.449 
679 9 1  7.054 50.933 22.969 
680 9 1  9.468 50.522 22.074 
681 9 1 11.944 50.105 21.560 
682 9 1 13.901 48.871 21.134 
683 9 1 15.144 46.646 20.719 
684 9 1 16.263 44.391 19.785 
685 9 1 17.787 42.534 18.877 
686 9 1 19.233 40.727 17.780 
687 9 1 20.843 38.723 17.542 
688 9 1 22.589 36.827 17.371 
689 9 1 24.541 35.412 17.143 
690 9 1 24.685 33.283 15.546 
691 9 1 24.650 31.225 14.025 
692 9 1 25.505 30.922 11.682 
693 9 1 27.198 29.123 10.944 
694 9 1 28.800 27.419 11.184 
695 9 1 30.036 27.797 13.405 
696 9 1 31.712 28.514 15.301 
697 9 1 33.368 29.569 16.944 
698 9 1 34.737 30.803 18.770 
699 9 1 34.773 32.256 20.549 
700 9 1 33.841 34.420 19.723 
701 9 1 33.145 36.324 21.037 
702 9 1 35.346 37.582 21.583 
703 9 1 37.638 38.688 22.193 
704 9 1 39.976 39.230 22.875 
705 9 1 42.438 39.833 23.415 
706 9 1 44.580 40.255 22.754 
707 9 1 46.476 40.662 21.034 
708 9 1 46.465 42.669 19.473 
709 9 1 45.353 44.396 18.512 
710 9 1 43.294 45.924 18.054 
711 9 1 41.193 47.022 17.168 
712 9 1 40.067 48.866 16.656 
713 9 1 39.954 51.411 16.732 
714 9 1 39.902 -2.867 17.067 
715 9 1 39.710 -0.298 17.491 
716 9 1 39.268  0.751 19.830 
717 9 1 38.903  0.884 22.103 
718 9 1 39.101 -0.012 24.522 
719 9 1 40.572 -1.928 25.262 
720 9 1 39.772 -3.815 26.816 
721 9 1 39.163 50.622 27.808 
722 9 1 38.754 48.130 28.572 
723 9 1 40.105 45.910 28.580 
724 9 1 41.378 43.661 28.528 
725 9 1 43.344 42.051 29.034 
726 9 1 45.495 40.914 28.973 
727 9 1 47.796 40.311 28.052 
728 9 1 48.835 40.752 25.749 
729 9 1 50.059 41.377 23.563 
730 9 1 51.357 42.349 21.537 
731 9 1 52.509 42.987 19.270 
732 9 1 -1.323 42.983 18.735 
733 9 1 -0.229 43.151 16.394 
734 9 1  1.490 41.712 15.147 
735 9 1  1.092 41.153 12.897 
736 9 1  1.723 38.864 11.869 
737 9 1  2.295 36.598 10.776 
738 9 1  3.342 34.801  9.312 
739 9 1  4.972 33.513  7.921 
740 9 1  7.087 32.674  7.688 
741 9 1  9.449 32.125  8.596 
742 9 1 11.713 31.537  8.597 
743 9 1 13.578 30.712  7.162 
744 9 1 12.706 29.349  5.150 
745 9 1 11.652 28.163 41.396 
746 9 1 10.498 26.491 40.174 
747 9 1  9.418 24.116 39.942 
748 9 1  8.389 22.559 38.596 
749 9 1  7.709 20.939 37.042 
750 9 1  6.536 18.996 36.250 
751 9 1  5.701 17.193 37.862 
752 9 1  5.409 14.730 37.267 
753 10 1  1.507 29.109  5.853 
754 10 1  2.310 27.114 42.597 
755 10 1  2.748 25.102 41.146 
756 10 1  5.128 25.462 40.510 
757 10 1  6.756 25.648 42.536 
758 10 1  8.321 25.875  6.259 
759 10 1 10.062 26.210  8.142 
760 10 1 11.861 26.308  9.958 
761 10 1 13.420 26.467 11.952 
762 10 1 15.041 26.657 13.998 
763 10 1 16.571 26.400 15.974 
764 10 1 18.315 26.300 17.814 
765 10 1 20.245 26.284 19.499 
766 10 1 22.093 25.866 21.250 
767 10 1 23.868 24.983 22.912 
768 10 1 26.289 25.742 23.265 
769 10 1 28.202 24.694 24.537 
770 10 1 30.516 25.758 25.139 
771 10 1 32.766 25.711 23.804 
772 10 1 34.064 25.986 21.936 
773 10 1 34.385 26.281 19.316 
774 10 1 34.525 24.895 17.126 
775 10 1 32.622 23.995 15.666 
776 10 1 30.950 22.774 14.182 
777 10 1 31.275 21.768 11.805 
778 10 1 30.815 22.513  9.409 
779 10 1 30.827 23.125  6.892 
780 10 1 31.416 24.342 43.122 
781 10 1 33.981 24.414 42.678 
782 10 1 36.525 24.505 42.073 
783 10 1 38.961 24.608 41.430 
784 10 1 41.352 24.805 40.746 
785 10 1 43.637 24.371 41.097 
786 10 1 45.525 23.271 42.427 
787 10 1 47.250 22.092 43.924 
788 10 1 48.700 20.748  7.228 
789 10 1 49.898 19.207  8.921 
790 10 1 50.947 17.259  9.423 
791 10 1 52.242 15.205  8.442 
792 10 1 51.856 14.453  6.173 
793 10 1 51.094 13.744 42.221 
794 10 1 50.217 14.173 40.171 
795 10 1 52.193 14.742 38.616 
796 10 1 -2.151 15.272 37.212 
797 10 1 -2.151 16.199 35.132 
798 10 1 -1.943 16.986 32.898 
799 10 1 -1.679 18.649 30.939 
800 10 1 -3.015 20.756 30.390 
801 10 1 52.327 23.136 30.142 
802 10 1 51.121 25.350 29.510 
803 10 1 49.923 27.525 28.696 
804 10 1 48.901 29.710 27.797 
805 10 1 47.600 31.459 26.480 
806 10 1 45.646 32.105 25.133 
807 10 1 43.302 32.150 24.263 
808 10 1 42.378 31.122 22.044 
809 10 1 40.974 31.160 19.844 
810 10 1 40.551 31.372 17.588 
811 10 1 40.578 31.177 14.950 
812 10 1 41.123 29.179 13.320 
813 10 1 41.032 27.061 12.292 
814 10 1 42.451 24.947 12.833 
815 10 1 41.912 22.388 12.518 
816 10 1 41.463 19.996 11.933 
817 10 1 41.220 17.678 10.980 
818 10 1 41.260 15.490  9.558 
819 10 1 41.238 14.316  7.354 
820 10 1 41.138 12.966  5.480 
821 10 1 40.350 11.099 42.257 
822 10 1 39.225  9.542 40.600 
823 10 1 37.630  7.508 40.751 
824 10 1 36.001  6.217 41.850 
825 10 1 34.353  5.721 43.791 
826 10 1 32.646  5.447  7.419 
827 10 1 30.727  4.911  9.100 
828 10 1 28.547  4.353 10.425 
829 10 1 26.770  5.631 11.728 
830 10 1 26.839  5.977 14.338 
831 11 1 33.754 12.709 14.971 
832 11 1 34.137 12.094 17.384 
833 11 1 34.095 10.554 19.194 
834 11 1 34.103  9.466 21.274 
835 11 1 34.846  9.590 23.804 
836 11 1 33.647 11.099 25.494 
837 11 1 32.876 12.766 27.329 
838 11 1 32.890 14.732 29.205 
839 11 1 33.578 16.869 30.533 
840 11 1 34.394 18.990 31.586 
841 11 1 34.435 21.018 32.643 
842 11 1 33.080 23.142 33.346 
843 11 1 31.933 25.472 33.910 
844 11 1 31.078 27.806 34.642 
845 11 1 30.185 29.866 35.781 
846 11 1 29.373 31.904 36.872 
847 11 1 28.199 33.916 38.051 
848 11 1 27.639 35.571 39.740 
849 11 1 27.942 36.934 41.894 
850 11 1 28.105 39.002 42.904 
851 11 1 27.201 41.299 43.347 
852 11 1 26.031 43.104  6.132 
853 11 1 25.082 44.569  7.969 
854 11 1 24.832 46.471  9.201 
855 11 1 25.553 48.896  9.550 
856 11 1 27.569 49.779 10.912 
857 11 1 29.756 49.182 11.754 
858 11 1 31.486 47.609 12.700 
859 11 1 32.711 45.571 13.732 
860 11 1 34.231 43.807 12.505 
861 11 1 33.723 41.363 12.489 
862 11 1 32.927 38.971 13.065 
863 11 1 32.396 36.513 13.546 
864 11 1 30.829 34.843 14.094 
865 11 1 29.789 34.086 16.205 
866 11 1 29.673 32.568 18.174 
867 11 1 29.271 30.733 19.820 
868 11 1 28.790 28.197 19.681 
869 11 1 29.020 25.619 19.493 
870 11 1 29.721 23.125 19.324 
871 11 1 31.177 21.872 21.078 
872 11 1 33.317 21.428 21.951 
873 11 1 35.114 21.152 20.253 
874 11 1 36.552 21.373 18.289 
875 11 1 37.151 21.617 15.848 
876 11 1 37.956 20.878 13.793 
877 11 1 36.232 19.436 12.596 
878 11 1 34.672 17.869 11.177 
879 11 1 33.091 16.248  9.793 
880 11 1 31.362 15.203  8.231 
881 11 1 29.735 14.177  6.560 
882 11 1 28.026 12.998  5.081 
883 11 1 26.301 11.549 42.089 
884 11 1 24.316 10.564 41.777 
885 11 1 21.763 10.556 42.102 
886 11 1 19.846  9.706 42.802 
887 11 1 17.888  8.873  5.511 
888 11 1 15.434  8.480  5.926 
889 11 1 13.759  7.938  7.544 
890 11 1 12.989  6.197  8.861 
891 11 1 12.291  3.911  9.527 
892 11 1 11.854  1.447 10.146 
893 11 1 11.562 -1.044 10.695 
894 11 1 11.115 -3.527 11.118 
895 11 1 10.777 50.807 11.627 
896 11 1 10.345 48.314 11.875 
897 11 1 10.448 45.719 12.231 
898 11 1 10.464 43.403 12.955 
899 11 1  9.784 41.253 13.592 
900 11 1  7.749 39.773 14.145 
901 11 1  6.355 38.320 15.319 
902 11 1  4.406 37.184 15.926 
903 11 1  2.365 35.626 15.706 
904 11 1  0.785 33.705 15.361 
905 11 1 -0.898 31.809 15.001 
906 11 1 -2.684 29.919 14.604 
907 11 1 -2.869 27.561 14.206 
908 11 1 -2.906 25.108 14.569 
909 12 1 18.967 52.118 42.248 
910 12 1 16.669 -3.429 42.347 
911 12 1 14.579 -2.001 42.257 
912 12 1 12.395 -0.703 42.355 
913 12 1 10.033  0.363 42.778 
914 12 1  7.657  1.118 43.250 
915 12 1  5.333  1.897 44.005 
916 12 1  3.269  3.008  6.800 
917 12 1  1.348  1.888  8.150 
918 12 1 -0.247  0.939  9.870 
919 12 1 -1.578  0.180 11.939 
920 12 1 -2.796 -0.637 14.116 
921 12 1 -3.601 -1.801 16.271 
922 12 1 50.521 -1.689 17.547 
923 12 1 48.106 -1.487 18.453 
924 12 1 45.652 -1.398 19.250 
925 12 1 44.393 -3.223 20.569 
926 12 1 42.875 52.246 22.201 
927 12 1 42.142 50.618 23.617 
928 12 1 42.835 48.716 25.370 
929 12 1 44.925 48.255 26.815 
930 12 1 47.094 47.772 28.006 
931 12 1 49.273 47.518 29.337 
932 12 1 51.633 47.086 30.239 
933 12 1 -2.266 46.369 30.603 
934 12 1 -1.407 45.192 32.762 
935 12 1  0.889 45.255 32.868 
936 12 1  3.023 46.701 32.576 
937 12 1  5.001 48.191 32.285 
938 12 1  7.023 49.689 31.773 
939 12 1  9.346 50.843 31.311 
940 12 1 11.634 50.760 31.450 
941 12 1 14.030 50.721 31.558 
942 12 1 15.464 52.598 32.606 
943 12 1 16.571 -3.161 34.312 
944 12 1 16.597 -2.079 36.612 
945 12 1 16.650 -0.300 38.512 
946 12 1 16.921  1.542 40.184 
947 12 1 16.947  3.166 42.180 
948 12 1 16.810  4.377  6.236 
949 12 1 16.174  2.705  7.740 
950 12 1 15.943  0.204  8.408 
951 12 1 16.272 -2.202  9.097 
952 12 1 16.156 52.090  9.708 
953 12 1 15.589 49.539  9.850 
954 12 1 15.339 46.970  9.894 
955 12 1 15.267 44.471  9.739 
956 12 1 15.476 41.938  9.212 
957 12 1 16.405 39.697  8.829 
958 12 1 18.587 38.446  8.479 
959 12 1 20.484 36.827  8.227 
960 12 1 21.561 34.726  8.596 
961 12 1 22.096 33.575 10.446 
962 12 1 20.599 33.980 12.586 
963 12 1 19.328 34.989 14.442 
964 12 1 17.590 35.868 15.602 
965 12 1 15.459 36.535 16.532 
966 12 1 13.763 38.260 17.106 
967 12 1 13.366 39.741 19.181 
968 12 1 12.915 41.529 21.099 
969 12 1 12.594 43.179 23.116 
970 12 1 12.286 44.979 25.008 
971 12 1 10.385 46.458 25.748 
972 12 1 10.391 48.980 25.955 
973 12 1 10.575 51.582 26.321 
974 12 1 11.010 -2.760 26.731 
975 12 1 11.364 -1.649 29.051 
976 12 1 12.378 -0.920 31.244 
977 12 1 12.866 -0.377 33.661 
978 12 1 12.458 -0.025 36.236 
979 12 1 10.452  1.136 37.395 
980 12 1  8.528  2.411 38.469 
981 12 1  6.613  3.662 39.720 
982 12 1  4.413  4.634 40.440 
983 12 1  1.987  5.396 40.519 
984 12 1 -0.460  5.929 40.572 
985 12 1 -0.807  8.098 39.578 
986 12 1 -0.255 10.596 39.074 