LAMMPS data file generated by aa2cg.

2000 atoms
1 atom types
1975 bonds
1 bond types
1950 angles
1 angle types
1925 dihedrals
1 dihedral types

 0.000 60.462 xlo xhi
 0.000 45.118 ylo yhi
 0.000 44.992 zlo zhi

Masses

1 24.022

Atoms # molecular

1 1 1  1.408 15.996 25.077 
2 1 1 20.688 32.592 25.522 
3 2 1 44.240 43.778 15.967 
4 2 1 50.099 35.136  3.281 
5 3 1 -5.435  3.486 37.421 
6 3 1 30.522 21.739  4.664 
7 4 1 16.468  3.883 39.222 
8 4 1  3.420 42.352 18.335 
9 5 1 28.358 11.149 22.515 
10 5 1 48.627 46.058 23.259 
11 6 1 34.235 44.313  9.201 
12 6 1 10.303 44.672 41.492 
13 7 1 27.874  7.531 45.416 
14 7 1 18.400 31.619 45.867 
15 8 1 43.795 10.271 44.689 
16 8 1 42.734 37.989  8.406 
17 9 1 51.754 12.456 24.589 
18 9 1 -3.555 28.432 31.634 
19 10 1 32.397  6.578 26.991 
20 10 1  6.092 44.506 30.756 
21 11 1 32.973 18.815 37.900 
22 11 1 32.391 27.920 22.470 
23 12 1 42.658 14.859 14.779 
24 12 1 15.986 10.620 32.245 
25 13 1 12.296 37.975 26.072 
26 13 1 30.779 42.681 44.583 
27 14 1 12.314 40.456 30.682 
28 14 1  5.687  7.070 17.621 
29 15 1 17.148  9.641 39.197 
30 15 1 46.553 13.885 37.148 
31 16 1 30.516 15.274  4.081 
32 16 1 18.332 21.663 10.920 
33 17 1 21.438 37.186 37.224 
34 17 1 16.921 42.337 23.889 
35 18 1  4.220 18.330  3.541 
36 18 1  7.338 40.795 15.704 
37 19 1 48.568 37.665 11.274 
38 19 1 47.183 37.088 33.174 
39 20 1 16.970 42.750  8.678 
40 20 1 11.153 31.057 44.878 
41 21 1  9.685 36.160 15.748 
42 21 1 38.104 37.314 37.293 
43 22 1  1.593 33.957 19.945 
44 22 1 19.204 13.803 38.081 
45 23 1 30.089 19.243 16.865 
46 23 1 -2.612 41.685 32.781 
47 24 1 -1.588 32.135 37.012 
48 24 1  8.850 17.857 23.510 
49 25 1 34.875 32.875 33.748 
50 25 1 -0.522 34.055 26.156 
51 1 1  2.792 16.444 22.897 
52 1 1  3.828 16.877 20.487 
53 1 1  3.243 15.590 18.332 
54 1 1  2.623 14.369 16.152 
55 1 1  1.540 12.927 14.329 
56 1 1  0.286 11.654 12.470 
57 1 1  1.105  9.671 10.969 
58 1 1  1.197  9.277  8.325 
59 1 1  1.650  9.279  5.924 
60 1 1  2.807  9.658  3.658 
61 1 1  5.457  9.700  3.238 
62 1 1  6.419 10.808 46.233 
63 1 1  6.829 12.704 44.551 
64 1 1  7.598 14.199 42.601 
65 1 1  8.504 15.812 40.760 
66 1 1  9.345 17.630 39.095 
67 1 1 10.489 19.332 37.656 
68 1 1 11.926 20.978 36.333 
69 1 1 12.152 23.110 35.576 
70 1 1 11.642 25.161 34.110 
71 1 1 11.014 27.252 32.745 
72 1 1 10.478 29.388 31.397 
73 1 1  8.214 30.673 30.934 
74 1 1  6.297 32.243 30.508 
75 1 1  4.279 33.905 30.125 
76 1 1  2.237 35.302 30.143 
77 1 1  0.085 36.694 29.980 
78 1 1 -2.213 37.856 29.936 
79 1 1 -3.533 38.838 27.829 
80 1 1 -4.731 39.372 25.685 
81 1 1 -6.081 40.003 23.627 
82 1 1 53.835 39.932 21.384 
83 1 1 54.138 39.185 18.901 
84 1 1 54.182 38.440 16.399 
85 1 1 53.958 37.683 13.971 
86 1 1 53.667 36.777 11.627 
87 1 1 53.411 35.932  9.322 
88 1 1 51.890 35.222  7.621 
89 1 1 50.516 33.151  8.156 
90 1 1 49.743 31.308  9.213 
91 1 1 48.875 29.813 11.234 
92 1 1 48.008 28.331 13.145 
93 1 1 46.487 26.899 14.083 
94 1 1 44.649 25.570 14.957 
95 1 1 42.718 26.839 15.674 
96 1 1 40.950 28.607 15.408 
97 1 1 39.265 30.480 15.595 
98 1 1 37.574 32.383 16.303 
99 1 1 35.707 33.483 14.864 
100 1 1 34.026 34.616 13.131 
101 1 1 32.704 35.648 11.148 
102 1 1 30.189 35.624 10.475 
103 1 1 27.811 35.671  9.481 
104 1 1 25.843 37.322  9.953 
105 1 1 23.768 38.670 10.423 
106 1 1 21.614 40.110 10.889 
107 1 1 21.248 42.704 10.353 
108 1 1 21.116 45.195  9.837 
109 1 1 22.102 47.135  9.043 
110 1 1 24.202  3.041  8.010 
111 1 1 26.093  4.004  6.587 
112 1 1 27.906  5.456  5.544 
113 1 1 26.802  7.488  6.355 
114 1 1 24.564  8.083  5.171 
115 1 1 23.048  8.077  3.365 
116 1 1 22.084  7.598 46.153 
117 1 1 21.023  6.872 43.877 
118 1 1 20.236  6.242 41.504 
119 1 1 21.404  6.239 39.211 
120 1 1 22.426  4.269 37.883 
121 1 1 21.654  2.834 36.022 
122 1 1 21.044 46.505 34.056 
123 1 1 20.700 44.459 32.580 
124 1 1 20.498 42.000 31.603 
125 1 1 20.618 39.505 30.896 
126 1 1 21.369 37.030 30.742 
127 1 1 22.131 35.743 28.583 
128 1 1 22.015 34.666 26.410 
129 2 1 44.181 44.850 13.560 
130 2 1 44.557 46.231 11.448 
131 2 1 45.396  2.895  9.900 
132 2 1 46.966  4.350  9.094 
133 2 1 49.435  5.071  9.186 
134 2 1 51.185  5.361 11.094 
135 2 1 52.524  6.003 13.211 
136 2 1 53.795  6.491 15.302 
137 2 1 55.235  7.093 17.391 
138 2 1 -4.153  7.763 19.687 
139 2 1 -3.473  8.267 22.163 
140 2 1 -1.466  9.699 23.038 
141 2 1 -1.277 12.021 22.594 
142 2 1 -1.215 14.241 21.453 
143 2 1 -1.497 13.886 19.140 
144 2 1 -2.714 12.473 17.304 
145 2 1 -3.648 10.928 15.587 
146 2 1 -5.856 11.155 14.280 
147 2 1 52.259 10.961 13.300 
148 2 1 50.322 10.439 11.634 
149 2 1 48.508  9.930  9.964 
150 2 1 46.610  9.258  8.480 
151 2 1 44.614  8.752  6.940 
152 2 1 42.933  8.052  5.077 
153 2 1 40.997  8.060  3.590 
154 2 1 38.673  8.635  2.480 
155 2 1 36.345  9.112  3.617 
156 2 1 33.761  9.372  3.975 
157 2 1 31.737  9.157  2.304 
158 2 1 31.146 10.931 45.625 
159 2 1 30.757 13.069 44.384 
160 2 1 31.368 14.642 42.968 
161 2 1 33.231 16.325 42.184 
162 2 1 34.974 18.259 41.478 
163 2 1 36.602 20.074 40.745 
164 2 1 38.828 19.779 40.254 
165 2 1 40.853 19.591 38.762 
166 2 1 41.831 21.454 37.236 
167 2 1 43.002 23.338 35.895 
168 2 1 43.844 23.241 33.487 
169 2 1 44.758 23.159 31.082 
170 2 1 45.765 23.088 28.677 
171 2 1 46.782 22.780 26.343 
172 2 1 47.967 21.962 24.210 
173 2 1 49.119 21.212 22.214 
174 2 1 50.485 20.501 20.131 
175 2 1 51.236 20.537 17.824 
176 2 1 50.667 20.152 15.600 
177 2 1 49.782 18.723 13.602 
178 2 1 48.960 16.316 13.556 
179 2 1 47.869 13.926 13.852 
180 2 1 46.825 11.636 14.441 
181 2 1 45.091 10.280 13.091 
182 2 1 43.383  9.823 11.493 
183 2 1 41.133 11.202 11.610 
184 2 1 39.131 12.356 12.409 
185 2 1 37.674 13.634 14.186 
186 2 1 38.708 14.230 16.443 
187 2 1 39.859 15.315 18.465 
188 2 1 41.389 16.629 20.089 
189 2 1 43.026 17.835 21.668 
190 2 1 45.218 18.301 22.353 
191 2 1 47.559 17.538 22.412 
192 2 1 49.908 16.710 22.278 
193 2 1 51.168 16.034 20.139 
194 2 1 52.164 15.773 17.817 
195 2 1 53.121 15.739 15.385 
196 2 1 53.546 15.902 12.894 
197 2 1 54.080 16.081 10.395 
198 2 1 54.396 16.710  7.909 
199 2 1 54.301 17.873  5.643 
200 2 1 52.957 19.721  5.295 
201 2 1 51.032 20.987  4.260 
202 2 1 50.331 23.110  3.644 
203 2 1 50.639 25.635  3.675 
204 2 1 49.947 27.888  3.662 
205 2 1 49.197 30.075  3.327 
206 2 1 49.566 32.621  3.293 
207 3 1 52.719  2.411 37.932 
208 3 1 50.332 46.407 38.056 
209 3 1 48.100 45.324 38.512 
210 3 1 46.699 43.981 39.613 
211 3 1 46.317 42.573 41.729 
212 3 1 46.810 43.528 44.138 
213 3 1 47.371 44.182 46.596 
214 3 1 48.355 44.748  3.880 
215 3 1 49.619 44.914  6.156 
216 3 1 51.262 45.449  8.106 
217 3 1 53.243 46.327  9.569 
218 3 1 54.647  2.867 10.206 
219 3 1 -5.072  5.314 10.163 
220 3 1 -4.464  7.803 10.016 
221 3 1 -3.785 10.243  9.598 
222 3 1 -3.280 12.421 10.236 
223 3 1 -2.789 14.535 11.549 
224 3 1 -2.232 16.654 13.004 
225 3 1 -2.596 17.150 15.553 
226 3 1 -3.868 17.715 17.705 
227 3 1 -5.031 18.585 19.871 
228 3 1 54.380 19.721 21.991 
229 3 1 53.250 20.549 24.130 
230 3 1 51.982 21.150 26.249 
231 3 1 50.663 21.815 28.523 
232 3 1 51.203 23.143 30.588 
233 3 1 52.102 24.519 32.253 
234 3 1 52.728 26.803 33.397 
235 3 1 52.296 29.137 32.264 
236 3 1 52.659 30.602 30.566 
237 3 1 53.713 31.331 28.196 
238 3 1 -5.325 29.599 27.360 
239 3 1 -4.640 27.257 26.647 
240 3 1 -3.820 24.927 25.907 
241 3 1 -3.032 23.894 24.042 
242 3 1 -2.225 23.860 21.599 
243 3 1 -3.233 23.151 19.374 
244 3 1 -4.131 22.253 17.029 
245 3 1 -4.927 21.401 14.671 
246 3 1 54.416 20.551 12.611 
247 3 1 52.668 20.378 10.837 
248 3 1 50.952 19.329  9.643 
249 3 1 49.234 17.323  9.368 
250 3 1 47.430 15.476  9.177 
251 3 1 45.997 14.227  7.723 
252 3 1 45.262 13.845  5.229 
253 3 1 43.953 13.212  3.177 
254 3 1 41.825 12.776 46.794 
255 3 1 39.637 12.279 45.437 
256 3 1 37.544 11.703 44.035 
257 3 1 35.494 11.429 42.588 
258 3 1 33.535 11.102 40.937 
259 3 1 32.225 10.556 38.765 
260 3 1 31.352  8.354 37.845 
261 3 1 30.674  6.325 36.406 
262 3 1 30.152  4.167 35.023 
263 3 1 29.873  1.826 33.963 
264 3 1 29.850 44.802 32.719 
265 3 1 29.137 42.632 31.382 
266 3 1 28.588 40.403 30.210 
267 3 1 28.081 38.227 28.877 
268 3 1 29.004 36.263 28.176 
269 3 1 30.784 34.459 28.123 
270 3 1 31.536 32.850 29.954 
271 3 1 31.062 31.653 31.788 
272 3 1 30.011 30.977 34.064 
273 3 1 29.108 32.700 35.536 
274 3 1 29.244 34.853 36.827 
275 3 1 29.469 37.219 37.797 
276 3 1 30.789 37.836 39.872 
277 3 1 31.697 37.551 41.949 
278 3 1 32.454 36.027 43.913 
279 3 1 30.917 34.379 45.061 
280 3 1 31.744 32.346 46.420 
281 3 1 32.498 30.429  2.999 
282 3 1 30.975 28.368  3.462 
283 3 1 29.449 26.273  3.784 
284 3 1 29.930 23.928  4.802 
285 4 1 14.865  2.787 37.892 
286 4 1 13.788 45.980 37.064 
287 4 1 15.003 43.853 38.019 
288 4 1 16.275 41.683 38.700 
289 4 1 17.801 40.070 39.739 
290 4 1 19.666 39.427 41.362 
291 4 1 22.236 39.441 40.999 
292 4 1 24.742 39.709 40.554 
293 4 1 27.213 39.919 39.902 
294 4 1 28.621 42.184 39.886 
295 4 1 29.887 44.451 39.668 
296 4 1 31.160 46.521 38.804 
297 4 1 33.403 46.573 37.511 
298 4 1 34.795  3.615 37.399 
299 4 1 35.473  5.618 36.591 
300 4 1 35.795  7.721 35.605 
301 4 1 36.703  9.836 35.563 
302 4 1 38.042 10.526 37.826 
303 4 1 38.285 10.044 40.093 
304 4 1 39.472  8.020 40.640 
305 4 1 41.444  6.500 41.004 
306 4 1 43.606  4.984 41.212 
307 4 1 45.419  3.158 41.525 
308 4 1 47.945  2.981 41.596 
309 4 1 49.411  2.303 43.594 
310 4 1 50.932 46.773 45.538 
311 4 1 51.925 47.411  2.458 
312 4 1 52.558  4.127  4.120 
313 4 1 52.903  6.236  5.632 
314 4 1 52.626  8.571  6.840 
315 4 1 51.957 10.739  8.108 
316 4 1 51.328 12.496  6.936 
317 4 1 50.487 14.349  5.726 
318 4 1 49.626 15.997  4.379 
319 4 1 48.270 17.307  2.749 
320 4 1 45.750 17.949  2.947 
321 4 1 43.518 18.978  3.672 
322 4 1 41.311 20.432  3.812 
323 4 1 39.200 21.845  4.421 
324 4 1 37.052 23.071  5.183 
325 4 1 34.748 23.917  5.816 
326 4 1 33.716 25.517  7.480 
327 4 1 32.225 27.056  8.909 
328 4 1 30.579 27.660 10.572 
329 4 1 28.807 27.497 12.333 
330 4 1 26.355 27.021 12.443 
331 4 1 23.804 26.993 12.756 
332 4 1 21.313 27.011 13.384 
333 4 1 19.060 27.535 13.423 
334 4 1 17.055 28.367 12.734 
335 4 1 15.473 30.303 12.499 
336 4 1 13.755 32.185 12.163 
337 4 1 13.695 33.098 10.025 
338 4 1 14.508 33.243  7.911 
339 4 1 16.514 33.557  6.338 
340 4 1 18.598 33.535  4.640 
341 4 1 21.115 33.256  5.173 
342 4 1 22.042 31.212  4.918 
343 4 1 22.181 29.056  4.161 
344 4 1 20.113 28.300  2.954 
345 4 1 17.893 27.718  2.884 
346 4 1 15.500 27.654  3.884 
347 4 1 14.475 28.125  6.199 
348 4 1 13.474 26.070  6.733 
349 4 1 14.586 24.726  8.748 
350 4 1 14.622 24.316 10.989 
351 4 1 14.023 24.335 13.428 
352 4 1 13.736 23.936 15.895 
353 4 1 12.502 25.447 17.562 
354 4 1 11.677 27.169 19.221 
355 4 1 10.890 29.138 20.690 
356 4 1 10.173 31.121 22.098 
357 4 1  9.591 33.273 22.647 
358 4 1  9.814 35.885 22.556 
359 4 1 10.269 37.204 20.422 
360 4 1  9.473 39.439 20.394 
361 4 1  7.532 40.934 21.028 
362 4 1  5.518 41.584 19.644 
363 5 1 27.248 11.207 20.429 
364 5 1 25.494 11.915 18.682 
365 5 1 23.810 12.468 16.820 
366 5 1 21.492 13.422 17.326 
367 5 1 19.259 14.471 17.845 
368 5 1 16.907 15.519 18.377 
369 5 1 14.403 16.181 18.837 
370 5 1 12.425 15.382 19.669 
371 5 1 11.824 13.170 18.558 
372 5 1 10.967 10.838 17.588 
373 5 1 10.232  8.543 16.485 
374 5 1  9.305  7.115 14.862 
375 5 1  8.419  5.376 13.392 
376 5 1  7.754  3.108 12.377 
377 5 1  7.560 46.523 10.779 
378 5 1  8.424 46.340  8.375 
379 5 1 10.176 44.919  7.057 
380 5 1 12.359 45.777  7.509 
381 5 1 14.487 46.486  8.671 
382 5 1 16.500 47.648  9.141 
383 5 1 18.328  4.345  8.456 
384 5 1 20.102  5.737  7.114 
385 5 1 21.578  7.152  8.319 
386 5 1 23.643  7.700  9.748 
387 5 1 25.776  8.286 11.140 
388 5 1 27.807  6.686 11.246 
389 5 1 30.020  5.520 11.220 
390 5 1 32.526  4.860 11.427 
391 5 1 34.766  4.038 12.339 
392 5 1 36.979  3.134 13.127 
393 5 1 37.907  2.064 15.285 
394 5 1 38.778 45.772 17.246 
395 5 1 40.168 46.700 18.755 
396 5 1 41.042  3.391 20.481 
397 5 1 42.702  4.470 22.008 
398 5 1 44.933  5.048 23.071 
399 5 1 47.089  5.801 24.134 
400 5 1 48.586  4.703 25.760 
401 5 1 49.275  2.937 27.023 
402 5 1 49.500 45.617 27.587 
403 5 1 49.626 43.214 28.643 
404 5 1 49.135 41.115 27.242 
405 5 1 49.038 40.116 25.176 
406 5 1 49.308 40.125 22.641 
407 5 1 47.626 41.168 20.954 
408 5 1 47.929 41.329 18.368 
409 5 1 48.677 41.654 15.883 
410 5 1 49.670 41.651 13.534 
411 5 1 51.106 41.520 11.332 
412 5 1 52.862 41.254  9.537 
413 5 1 54.500 41.097  7.594 
414 5 1 -4.818 40.116  5.844 
415 5 1 -4.726 38.168  4.224 
416 5 1 -4.964 35.855  3.340 
417 5 1 -5.277 33.277  3.299 
418 5 1 -6.084 31.569  5.169 
419 5 1 55.213 29.687  6.277 
420 5 1 -3.363 28.303  7.061 
421 5 1 -1.180 27.339  7.901 
422 5 1  1.040 26.831  9.111 
423 5 1  3.267 26.250 10.226 
424 5 1  5.623 26.066 10.957 
425 5 1  8.201 26.116 11.374 
426 5 1 10.144 26.928 12.286 
427 5 1 10.447 29.477 12.088 
428 5 1  8.751 31.306 12.628 
429 5 1  7.180 33.263 12.868 
430 5 1  5.388 34.575 12.749 
431 5 1  3.517 35.872 11.856 
432 5 1  1.981 37.885 11.503 
433 5 1 -0.108 38.957 10.835 
434 5 1 -2.034 40.182 10.720 
435 5 1 -3.479 41.654 11.729 
436 5 1 -4.948 42.467 13.530 
437 5 1 53.933 42.873 15.554 
438 5 1 52.677 43.369 17.760 
439 5 1 51.411 44.207 19.909 
440 5 1 50.314 45.369 21.914 
441 6 1 31.801 45.118  9.310 
442 6 1 29.438 45.631 10.078 
443 6 1 27.086 46.192 10.806 
444 6 1 26.003  2.745 12.465 
445 6 1 24.728  4.246 14.073 
446 6 1 23.471  5.770 15.613 
447 6 1 24.614  7.760 15.020 
448 6 1 26.512  8.639 16.553 
449 6 1 29.000  8.879 15.693 
450 6 1 31.397  9.031 14.828 
451 6 1 33.801  9.162 13.908 
452 6 1 36.077  8.742 13.369 
453 6 1 38.525  7.824 13.541 
454 6 1 40.321  8.875 15.072 
455 6 1 42.027  9.928 16.778 
456 6 1 43.379 11.271 18.446 
457 6 1 44.892 12.702 19.940 
458 6 1 46.660 14.062 19.045 
459 6 1 47.694 15.755 17.411 
460 6 1 46.949 18.255 17.543 
461 6 1 46.253 20.695 17.838 
462 6 1 45.049 22.172 19.054 
463 6 1 43.877 23.451 20.931 
464 6 1 43.059 22.866 23.419 
465 6 1 42.174 22.706 25.809 
466 6 1 41.211 22.655 28.207 
467 6 1 40.273 22.742 30.651 
468 6 1 38.837 22.725 32.777 
469 6 1 37.246 23.126 34.795 
470 6 1 35.070 23.158 35.698 
471 6 1 32.503 22.865 35.670 
472 6 1 29.936 22.230 35.789 
473 6 1 27.440 22.039 36.184 
474 6 1 26.254 20.017 35.580 
475 6 1 25.642 17.570 35.297 
476 6 1 24.631 15.853 36.938 
477 6 1 23.950 15.267 39.039 
478 6 1 23.572 15.844 41.545 
479 6 1 22.554 16.827 43.650 
480 6 1 21.296 18.001 45.608 
481 6 1 19.841 19.159 47.447 
482 6 1 18.192 20.650  3.808 
483 6 1 16.358 21.051  5.211 
484 6 1 14.780 20.992  6.841 
485 6 1 15.093 18.955  8.387 
486 6 1 15.712 16.879  9.849 
487 6 1 15.584 14.967 11.561 
488 6 1 15.406 13.067 13.338 
489 6 1 15.453 11.132 15.072 
490 6 1 14.733  9.181 15.951 
491 6 1 13.878  6.870 16.346 
492 6 1 12.949  4.654 17.247 
493 6 1 12.440  2.415 18.456 
494 6 1 12.025 45.117 17.592 
495 6 1 11.821 42.690 16.868 
496 6 1 12.611 40.527 16.668 
497 6 1 14.193 38.529 16.594 
498 6 1 15.701 36.547 16.266 
499 6 1 16.900 34.338 15.626 
500 6 1 17.440 32.199 16.962 
501 6 1 16.981 30.684 18.592 
502 6 1 15.551 29.868 20.582 
503 6 1 14.695 30.850 22.861 
504 6 1 13.651 31.984 24.956 
505 6 1 12.708 32.813 27.217 
506 6 1 11.765 33.650 29.519 
507 6 1 10.684 34.311 31.668 
508 6 1  9.091 34.872 33.625 
509 6 1  7.823 35.629 35.723 
510 6 1  6.338 36.309 37.746 
511 6 1  4.958 37.292 39.653 
512 6 1  3.544 38.565 41.414 
513 6 1  2.494 39.827 43.374 
514 6 1  3.696 40.995 45.397 
515 6 1  4.590 43.400 45.553 
516 6 1  5.796 45.646 45.918 
517 6 1  8.259 45.713 46.210 
518 6 1  9.312 45.238 43.854 
519 7 1 26.542  5.302 45.439 
520 7 1 25.926  3.661 47.318 
521 7 1 23.753  2.808  3.352 
522 7 1 21.765  1.426  4.363 
523 7 1 19.627 45.287  4.905 
524 7 1 17.282 44.432  4.466 
525 7 1 14.835 43.573  3.752 
526 7 1 12.445 42.642  3.549 
527 7 1  9.995 41.829  3.006 
528 7 1  8.988 41.171 45.780 
529 7 1  7.994 40.708 43.504 
530 7 1  7.165 41.392 41.422 
531 7 1  6.070 43.071 39.831 
532 7 1  5.407 45.506 40.462 
533 7 1  4.291 47.709 41.163 
534 7 1  2.840  3.719 42.626 
535 7 1  1.530  4.279 44.763 
536 7 1  0.326  4.980 46.932 
537 7 1 -1.978  4.503  1.904 
538 7 1 -4.249  4.290 45.687 
539 7 1 -6.247  3.858 44.125 
540 7 1 53.334  5.195 42.134 
541 7 1 52.621  6.390 39.918 
542 7 1 50.524  7.603 40.092 
543 7 1 49.177  9.585 41.119 
544 7 1 48.216 11.850 42.028 
545 7 1 46.828 13.844 42.934 
546 7 1 45.299 15.845 43.600 
547 7 1 44.865 17.702 41.989 
548 7 1 44.975 19.453 40.061 
549 7 1 46.923 20.289 38.611 
550 7 1 48.862 21.374 37.135 
551 7 1 48.573 23.286 35.480 
552 7 1 47.993 25.445 34.281 
553 7 1 46.582 27.019 33.428 
554 7 1 44.235 27.693 32.508 
555 7 1 42.044 28.385 31.254 
556 7 1 40.485 28.186 29.546 
557 7 1 39.503 27.093 27.425 
558 7 1 38.500 26.127 25.296 
559 7 1 37.314 25.147 23.320 
560 7 1 35.564 24.116 21.739 
561 7 1 34.632 22.371 19.932 
562 7 1 34.870 21.172 18.007 
563 7 1 36.020 20.173 15.877 
564 7 1 36.716 18.604 13.872 
565 7 1 37.339 16.934 12.061 
566 7 1 39.623 16.949 10.781 
567 7 1 41.595 16.917  9.102 
568 7 1 43.413 17.808  8.050 
569 7 1 45.381 19.256  7.520 
570 7 1 47.196 20.996  6.843 
571 7 1 46.893 23.514  6.475 
572 7 1 46.350 26.055  6.442 
573 7 1 45.930 28.640  6.914 
574 7 1 45.853 31.144  7.230 
575 7 1 45.665 33.703  7.661 
576 7 1 46.586 35.746  7.083 
577 7 1 48.170 37.417  6.061 
578 7 1 49.878 39.119  5.323 
579 7 1 51.176 40.634  3.927 
580 7 1 52.118 42.117  2.002 
581 7 1 54.645 43.020 46.562 
582 7 1 -4.146 44.394 47.409 
583 7 1 -3.084 46.110  4.033 
584 7 1 -3.549 45.672  6.391 
585 7 1 -1.492 44.883  7.755 
586 7 1  0.568 43.998  9.195 
587 7 1  2.899 43.499 10.040 
588 7 1  5.368 42.700 10.145 
589 7 1  6.347 40.435 10.725 
590 7 1  7.427 38.306 10.223 
591 7 1  8.329 36.171  9.212 
592 7 1  8.916 33.939  8.025 
593 7 1 10.013 33.891  5.602 
594 7 1 11.528 32.576  4.225 
595 7 1 13.672 32.022  2.980 
596 7 1 16.005 31.734 46.941 
597 8 1 45.396  8.462 45.057 
598 8 1 47.393  6.775 44.578 
599 8 1 49.895  7.505 45.071 
600 8 1 52.294  8.370 45.624 
601 8 1 54.444  9.688 46.059 
602 8 1 -4.381 10.424 47.477 
603 8 1 -3.374  8.534  4.079 
604 8 1 -2.539  6.858  5.813 
605 8 1 -1.198  5.627  7.656 
606 8 1  0.370  4.411  9.319 
607 8 1  1.795  2.914 10.877 
608 8 1  3.215  1.772 12.613 
609 8 1  3.087  2.154 15.119 
610 8 1  2.390  2.422 17.569 
611 8 1  3.488  2.251 19.885 
612 8 1  5.027  2.062 21.639 
613 8 1  7.208 46.521 23.052 
614 8 1  9.384 45.250 22.440 
615 8 1 11.332 43.530 21.879 
616 8 1 12.855 41.421 21.464 
617 8 1 14.815 39.826 21.231 
618 8 1 17.022 39.113 20.602 
619 8 1 19.195 39.507 19.103 
620 8 1 19.296 41.789 18.352 
621 8 1 18.325 43.777 18.184 
622 8 1 16.510 44.438 19.630 
623 8 1 15.148 45.685 21.392 
624 8 1 13.802 46.939 23.241 
625 8 1 12.408  3.112 24.947 
626 8 1 10.872  4.418 26.652 
627 8 1  9.275  6.291 26.028 
628 8 1  7.330  7.795 25.468 
629 8 1  5.222  8.149 24.595 
630 8 1  3.176  7.320 23.362 
631 8 1  1.123  6.321 22.204 
632 8 1 -0.588  4.790 20.975 
633 8 1 -2.339  3.462 19.644 
634 8 1 -4.155  2.504 18.139 
635 8 1 -6.089 47.113 16.528 
636 8 1 52.345 46.894 15.088 
637 8 1 50.200 46.084 13.835 
638 8 1 48.535 47.698 13.987 
639 8 1 47.413  4.767 13.816 
640 8 1 46.762  6.806 14.730 
641 8 1 48.550  8.304 15.757 
642 8 1 50.306  9.543 16.888 
643 8 1 52.248 10.421 18.276 
644 8 1 53.745 11.891 19.811 
645 8 1 -5.630 13.454 21.699 
646 8 1 -5.146 14.999 23.681 
647 8 1 -5.258 14.291 26.225 
648 8 1 -4.174 14.026 28.308 
649 8 1 -2.377 14.242 30.144 
650 8 1 -1.092 13.201 31.758 
651 8 1 -0.707 11.004 33.119 
652 8 1  0.154  9.412 34.584 
653 8 1  1.052  8.476 36.838 
654 8 1  1.963  7.403 38.949 
655 8 1  0.499  6.008 39.972 
656 8 1 -1.008  3.889 40.237 
657 8 1 -2.331  1.845 40.843 
658 8 1 -4.276 45.749 41.560 
659 8 1 54.453 44.481 42.503 
660 8 1 52.769 42.999 41.241 
661 8 1 50.642 41.841 40.434 
662 8 1 50.303 39.311 40.286 
663 8 1 48.677 37.453 39.555 
664 8 1 47.151 35.517 38.599 
665 8 1 46.842 33.113 39.622 
666 8 1 46.762 30.742 40.581 
667 8 1 47.458 29.127 42.242 
668 8 1 46.047 28.913 44.112 
669 8 1 44.885 28.432 46.101 
670 8 1 42.558 29.194 47.085 
671 8 1 42.007 31.685 47.577 
672 8 1 41.620 34.145  3.415 
673 8 1 41.729 36.657  4.212 
674 8 1 41.117 37.451  6.652 
675 9 1 50.662 10.846 23.304 
676 9 1 49.095  9.667 21.804 
677 9 1 47.350  8.478 20.441 
678 9 1 45.833  7.018 19.061 
679 9 1 44.216  5.629 17.578 
680 9 1 42.499  4.200 16.155 
681 9 1 41.510  4.684 13.949 
682 9 1 41.062  4.592 11.513 
683 9 1 39.825  5.730  9.956 
684 9 1 39.486  7.619  8.080 
685 9 1 39.313 10.000  6.908 
686 9 1 39.383 12.452  6.176 
687 9 1 39.221 14.766  5.058 
688 9 1 39.236 17.085  5.107 
689 9 1 36.925 18.138  4.965 
690 9 1 34.655 18.361  4.148 
691 9 1 32.836 18.378  2.292 
692 9 1 30.681 18.896 46.018 
693 9 1 28.934 17.191 45.156 
694 9 1 26.652 16.663 46.429 
695 9 1 24.539 15.822  2.582 
696 9 1 22.492 14.435  3.480 
697 9 1 20.707 12.770  4.125 
698 9 1 18.913 11.014  4.654 
699 9 1 16.753  9.667  5.243 
700 9 1 14.406 10.312  4.481 
701 9 1 11.992 11.133  3.806 
702 9 1 11.196 10.115  1.841 
703 9 1 11.252  9.500 44.324 
704 9 1 11.183  8.976 41.877 
705 9 1 12.337 10.487 40.091 
706 9 1 13.579 12.362 39.130 
707 9 1 14.423 14.752 39.112 
708 9 1 15.198 17.164 39.121 
709 9 1 15.929 19.592 39.349 
710 9 1 16.519 22.052 39.273 
711 9 1 16.211 24.377 38.744 
712 9 1 17.686 24.114 36.904 
713 9 1 19.523 22.694 35.747 
714 9 1 20.861 21.113 36.828 
715 9 1 21.610 19.666 38.556 
716 9 1 20.561 20.094 40.943 
717 9 1 19.750 21.362 42.778 
718 9 1 19.504 23.730 43.851 
719 9 1 18.414 25.768 42.580 
720 9 1 17.772 27.697 41.013 
721 9 1 15.342 28.852 40.944 
722 9 1 14.645 31.236 41.771 
723 9 1 13.868 33.524 42.657 
724 9 1 13.123 35.364 44.209 
725 9 1 12.466 36.737 46.249 
726 9 1 12.032 37.631  3.604 
727 9 1 11.633 39.024  5.744 
728 9 1 11.164 40.323  7.935 
729 9 1 11.052 41.607 10.166 
730 9 1 11.157 43.424 11.745 
731 9 1 11.673 46.004 12.233 
732 9 1 12.372  3.201 13.103 
733 9 1 13.870  5.081 12.079 
734 9 1 15.270  7.238 11.416 
735 9 1 16.308  8.906 10.159 
736 9 1 14.757 10.736  9.275 
737 9 1 13.328 12.716  8.403 
738 9 1 12.088 14.703  8.283 
739 9 1 10.919 16.680  9.490 
740 9 1  8.562 16.840 10.475 
741 9 1  6.415 17.279 11.961 
742 9 1  4.448 17.685 13.588 
743 9 1  2.435 18.466 15.121 
744 9 1  0.542 19.385 16.683 
745 9 1  0.528 20.233 19.136 
746 9 1 -0.257 19.930 21.330 
747 9 1 -1.620 18.951 23.300 
748 9 1 -2.960 19.188 25.174 
749 9 1 -3.904 20.333 27.282 
750 9 1 -5.105 21.291 29.259 
751 9 1 -4.429 23.611 30.045 
752 9 1 -3.817 25.984 30.883 
753 10 1 31.651  9.006 27.258 
754 10 1 31.132 11.536 27.323 
755 10 1 30.872 14.150 27.757 
756 10 1 30.798 16.551 28.573 
757 10 1 29.660 18.511 27.379 
758 10 1 28.989 20.937 26.712 
759 10 1 27.926 23.296 26.207 
760 10 1 25.765 24.308 27.116 
761 10 1 23.500 24.218 27.684 
762 10 1 21.053 23.531 27.583 
763 10 1 18.479 23.826 27.501 
764 10 1 15.897 23.775 27.385 
765 10 1 14.325 24.247 25.355 
766 10 1 13.440 25.308 23.516 
767 10 1 15.114 25.440 21.609 
768 10 1 16.897 25.624 19.772 
769 10 1 18.865 25.397 18.474 
770 10 1 21.447 25.304 18.118 
771 10 1 23.952 25.110 17.498 
772 10 1 26.296 24.775 16.480 
773 10 1 28.552 25.148 17.651 
774 10 1 30.485 26.434 18.066 
775 10 1 32.278 28.175 17.479 
776 10 1 33.949 29.584 18.164 
777 10 1 35.689 30.423 19.874 
778 10 1 37.525 31.124 21.471 
779 10 1 38.942 31.089 23.674 
780 10 1 40.317 31.439 25.735 
781 10 1 42.155 31.983 27.399 
782 10 1 43.830 32.039 29.305 
783 10 1 45.106 31.847 31.610 
784 10 1 46.534 31.265 33.689 
785 10 1 48.200 31.112 35.599 
786 10 1 49.411 29.730 37.069 
787 10 1 50.761 27.540 37.685 
788 10 1 51.981 25.450 38.533 
789 10 1 53.100 23.822 37.288 
790 10 1 55.153 22.958 35.978 
791 10 1 -3.211 24.293 35.513 
792 10 1 -1.217 25.600 34.736 
793 10 1  0.648 24.777 33.104 
794 10 1  2.405 23.343 32.001 
795 10 1  2.858 21.780 33.467 
796 10 1  2.016 19.696 34.858 
797 10 1  2.572 17.828 36.057 
798 10 1  3.844 15.860 37.176 
799 10 1  4.945 13.626 38.001 
800 10 1  6.232 11.374 38.399 
801 10 1  6.750  9.049 38.993 
802 10 1  6.131  8.853 41.517 
803 10 1  4.633  8.376 43.246 
804 10 1  2.294  8.642 44.024 
805 10 1  0.050  8.929 44.955 
806 10 1 -2.033  9.474 43.575 
807 10 1 -2.971  8.356 41.460 
808 10 1 -3.192  8.099 39.070 
809 10 1 -3.629 10.141 37.627 
810 10 1 -3.784 12.057 35.854 
811 10 1 -4.989 13.051 34.066 
812 10 1 54.181 14.253 32.564 
813 10 1 53.354 15.857 30.729 
814 10 1 51.655 17.216 29.995 
815 10 1 49.293 18.264 29.835 
816 10 1 46.946 18.847 29.299 
817 10 1 45.275 19.274 27.751 
818 10 1 44.965 17.268 26.599 
819 10 1 45.029 15.038 25.794 
820 10 1 46.040 12.968 24.721 
821 10 1 46.924 10.832 25.990 
822 10 1 48.049  9.145 27.587 
823 10 1 49.163  7.527 29.280 
824 10 1 50.053  6.065 31.189 
825 10 1 52.366  4.776 31.190 
826 10 1 54.447  3.331 31.257 
827 10 1 -3.743  2.215 31.163 
828 10 1 -1.376 46.767 30.848 
829 10 1  1.149 46.197 30.661 
830 10 1  3.549 45.289 30.847 
831 11 1 35.323 18.806 36.847 
832 11 1 37.435 18.531 35.424 
833 11 1 39.253 17.422 34.919 
834 11 1 41.158 15.860 35.466 
835 11 1 42.194 13.739 35.469 
836 11 1 42.261 11.167 35.370 
837 11 1 42.340  8.583 35.594 
838 11 1 42.292  6.012 35.789 
839 11 1 43.084  3.785 35.965 
840 11 1 44.482  2.128 35.081 
841 11 1 45.241 45.787 33.022 
842 11 1 45.316 43.999 31.154 
843 11 1 45.124 41.916 30.277 
844 11 1 44.027 39.498 30.523 
845 11 1 42.968 37.352 31.542 
846 11 1 41.895 35.185 32.241 
847 11 1 41.141 32.789 33.094 
848 11 1 39.105 31.895 32.502 
849 11 1 37.626 31.932 30.391 
850 11 1 36.153 32.033 28.230 
851 11 1 34.415 31.878 26.369 
852 11 1 32.803 32.541 24.855 
853 11 1 31.482 34.560 24.015 
854 11 1 30.139 36.826 23.766 
855 11 1 28.241 38.219 24.189 
856 11 1 25.937 38.804 25.079 
857 11 1 24.388 39.710 26.510 
858 11 1 23.233 41.472 27.386 
859 11 1 21.531 43.307 27.479 
860 11 1 19.918 45.336 27.853 
861 11 1 19.438 46.126 25.814 
862 11 1 19.754 45.904 23.517 
863 11 1 21.172 43.877 22.733 
864 11 1 22.666 41.982 21.871 
865 11 1 24.238 40.078 20.816 
866 11 1 26.230 39.618 19.802 
867 11 1 28.670 39.822 18.970 
868 11 1 30.852 38.957 18.895 
869 11 1 32.949 37.455 19.316 
870 11 1 34.245 36.989 21.454 
871 11 1 35.663 36.377 23.440 
872 11 1 37.454 35.894 25.249 
873 11 1 39.972 36.415 25.688 
874 11 1 40.242 36.468 27.987 
875 11 1 39.053 37.023 30.171 
876 11 1 37.645 37.316 32.239 
877 11 1 35.843 37.503 34.057 
878 11 1 33.343 37.460 33.339 
879 11 1 30.900 36.773 33.199 
880 11 1 28.607 36.012 32.497 
881 11 1 26.634 34.706 31.471 
882 11 1 25.896 33.295 29.861 
883 11 1 25.723 32.438 27.484 
884 11 1 27.444 32.315 25.513 
885 11 1 27.180 33.804 23.335 
886 11 1 26.465 33.019 20.978 
887 11 1 25.627 34.338 18.913 
888 11 1 23.986 35.094 17.429 
889 11 1 22.366 36.062 16.111 
890 11 1 20.818 37.159 14.753 
891 11 1 18.710 38.481 14.263 
892 11 1 17.151 40.531 13.718 
893 11 1 15.761 42.420 12.904 
894 11 1 15.676 44.357 14.340 
895 11 1 16.493 46.528 15.505 
896 11 1 17.680  3.572 14.724 
897 11 1 20.001  3.372 14.612 
898 11 1 20.939 46.438 14.421 
899 11 1 21.346 43.849 14.685 
900 11 1 22.847 42.110 15.114 
901 11 1 24.688 40.642 15.473 
902 11 1 26.054 38.589 14.761 
903 11 1 28.049 37.396 14.567 
904 11 1 29.535 36.131 15.532 
905 11 1 30.453 34.452 17.255 
906 11 1 31.448 33.065 19.248 
907 11 1 30.384 31.285 20.862 
908 11 1 30.104 29.063 21.882 
909 12 1 43.453 17.071 15.066 
910 12 1 43.889 19.405 14.011 
911 12 1 45.159 21.170 13.176 
912 12 1 46.979 22.409 11.835 
913 12 1 48.714 23.862 10.757 
914 12 1 50.595 25.334  9.832 
915 12 1 51.876 24.560  7.798 
916 12 1 54.464 24.634  7.668 
917 12 1 -4.449 23.413  5.863 
918 12 1 -3.135 22.043  4.053 
919 12 1 -2.081 19.712  4.138 
920 12 1 -2.010 17.489  3.737 
921 12 1 -2.052 15.203  3.568 
922 12 1 -0.915 13.037  4.090 
923 12 1  0.046 13.442  6.246 
924 12 1  1.005 14.814  7.802 
925 12 1  3.043 16.343  7.869 
926 12 1  5.081 17.906  7.829 
927 12 1  6.179 19.812  8.463 
928 12 1  6.649 21.759  9.985 
929 12 1  5.499 22.103 12.250 
930 12 1  4.245 22.814 14.325 
931 12 1  3.007 23.117 16.610 
932 12 1  3.934 24.693 18.416 
933 12 1  3.014 25.044 20.832 
934 12 1  2.230 25.176 23.262 
935 12 1  1.552 25.397 25.733 
936 12 1  0.987 25.721 28.243 
937 12 1  1.492 27.879 29.661 
938 12 1  3.802 27.702 29.876 
939 12 1  6.112 26.905 29.103 
940 12 1  7.968 25.419 29.405 
941 12 1  9.253 23.391 30.192 
942 12 1 10.275 21.058 30.372 
943 12 1 11.491 18.966 31.077 
944 12 1 12.590 16.978 30.862 
945 12 1 14.341 15.635 29.951 
946 12 1 16.807 14.971 29.883 
947 12 1 19.324 14.308 29.690 
948 12 1 20.961 14.775 27.675 
949 12 1 20.939 16.200 25.759 
950 12 1 19.302 17.502 24.240 
951 12 1 19.317 20.062 23.886 
952 12 1 20.381 21.980 23.203 
953 12 1 22.405 23.380 22.664 
954 12 1 24.659 22.883 21.343 
955 12 1 27.038 22.854 22.426 
956 12 1 29.444 22.876 21.196 
957 12 1 31.083 22.015 22.396 
958 12 1 32.377 20.004 23.511 
959 12 1 33.691 18.138 24.634 
960 12 1 34.586 16.002 25.983 
961 12 1 35.623 14.008 27.290 
962 12 1 36.672 11.595 26.763 
963 12 1 37.487  9.289 26.050 
964 12 1 37.730  7.313 24.733 
965 12 1 37.161  5.274 23.355 
966 12 1 36.731  2.913 22.300 
967 12 1 36.449 45.772 22.722 
968 12 1 34.568 45.360 24.538 
969 12 1 32.734 44.785 26.242 
970 12 1 30.695 44.987 27.235 
971 12 1 28.715 46.121 27.758 
972 12 1 29.174  3.106 29.148 
973 12 1 29.165  5.356 30.356 
974 12 1 29.048  7.621 31.638 
975 12 1 29.016  9.474 33.480 
976 12 1 27.675 11.662 33.461 
977 12 1 26.702 13.370 32.229 
978 12 1 25.668 14.641 30.528 
979 12 1 25.950 14.447 28.029 
980 12 1 25.954 14.157 25.414 
981 12 1 24.062 13.136 23.932 
982 12 1 22.384 11.771 23.368 
983 12 1 20.575  9.917 23.812 
984 12 1 19.179  9.648 26.010 
985 12 1 18.452  9.104 28.428 
986 12 1 17.360  9.288 30.560 