LAMMPS data file generated by aa2cg.

2000 atoms
1 atom types
1975 bonds
1 bond types
1950 angles
1 angle types
1925 dihedrals
1 dihedral types

 0.000 61.868 xlo xhi
 0.000 37.000 ylo yhi
 0.000 53.493 zlo zhi

Masses

1 24.022

Atoms # molecular

1 1 1 24.691 33.324 29.173 
2 1 1 14.208 27.885 35.968 
3 2 1 -2.953 10.790 38.095 
4 2 1 -1.198 17.174 24.506 
5 3 1 -1.817 20.751 38.693 
6 3 1 31.058 19.280 35.293 
7 4 1 18.998 39.237 18.617 
8 4 1 35.543 29.256 48.984 
9 5 1 35.927 30.567 28.399 
10 5 1 52.701 22.136 21.638 
11 6 1 37.202 34.784  8.744 
12 6 1 39.302 17.415 38.556 
13 7 1 20.507 35.245 16.852 
14 7 1 42.864 38.987  4.067 
15 8 1 25.172 33.045 -0.003 
16 8 1 40.292 38.607 11.129 
17 9 1 20.937 14.772 29.057 
18 9 1 -6.534 43.497 49.784 
19 10 1 11.282 29.409  5.439 
20 10 1 33.267 11.673  3.973 
21 11 1 28.546  9.596  2.818 
22 11 1 24.530 42.394 11.343 
23 12 1 46.909 23.596 34.835 
24 12 1 22.527  9.657 16.981 
25 13 1 54.661 30.351 34.208 
26 13 1 19.672 25.066 19.509 
27 14 1  6.958 31.458 38.887 
28 14 1 33.151 41.210 33.365 
29 15 1  0.937  9.856 18.453 
30 15 1  6.045 16.985 -0.101 
31 16 1  0.891 32.049  5.741 
32 16 1 26.900 18.447  5.857 
33 17 1 -3.565 42.621  5.878 
34 17 1  5.512 20.314 10.166 
35 18 1 -3.905 40.077 47.238 
36 18 1 48.789 24.642 14.093 
37 19 1 17.441 15.269  2.596 
38 19 1 25.632 13.271 27.938 
39 20 1 39.704 15.041 19.435 
40 20 1 27.564 18.851 16.253 
41 21 1  0.589 21.054 -1.857 
42 21 1 11.528 36.250 12.823 
43 22 1 -3.202 26.902  2.262 
44 22 1 28.069 22.256 37.779 
45 23 1 28.325 10.998 12.263 
46 23 1 25.989 22.877  8.721 
47 24 1 45.601 20.165 31.765 
48 24 1 26.072 23.955 31.554 
49 25 1 32.721 42.339  4.409 
50 25 1 38.133 28.634 45.282 
51 1 1 23.919 34.341 31.379 
52 1 1 24.993 36.501 32.431 
53 1 1 25.893 38.901 33.157 
54 1 1 26.975 40.958 32.819 
55 1 1 28.205 42.773 31.274 
56 1 1 30.230  6.295 30.162 
57 1 1 30.369 42.479 27.963 
58 1 1 29.444 42.437 25.656 
59 1 1 28.676 42.238 23.178 
60 1 1 29.831  6.419 21.187 
61 1 1 30.883  7.159 18.897 
62 1 1 32.128  7.984 16.846 
63 1 1 33.085  8.912 14.730 
64 1 1 34.276 10.369 13.414 
65 1 1 36.351 11.857 12.943 
66 1 1 37.912 12.750 14.885 
67 1 1 38.353 11.146 16.544 
68 1 1 37.722  9.178 18.022 
69 1 1 37.774  6.951 18.887 
70 1 1 38.726 41.561 19.338 
71 1 1 39.651 39.505 20.540 
72 1 1 40.861 37.638 21.874 
73 1 1 42.206 35.760 23.155 
74 1 1 43.298 34.073 24.632 
75 1 1 43.851 31.754 23.829 
76 1 1 43.827 30.189 22.183 
77 1 1 42.345 29.217 20.631 
78 1 1 40.314 27.941 19.638 
79 1 1 38.293 28.941 18.464 
80 1 1 36.266 30.452 17.872 
81 1 1 34.129 31.753 17.273 
82 1 1 32.200 33.432 16.707 
83 1 1 30.510 34.576 15.464 
84 1 1 28.941 35.098 13.468 
85 1 1 28.270 33.608 11.291 
86 1 1 27.247 31.993  9.594 
87 1 1 24.838 32.278  8.567 
88 1 1 23.624 30.749  6.736 
89 1 1 23.293 28.710  5.670 
90 1 1 24.471 28.611  3.693 
91 1 1 24.385 29.091  1.199 
92 1 1 23.917 28.830 -1.290 
93 1 1 21.894 27.553 -2.324 
94 1 1 22.251 26.368 48.969 
95 1 1 22.901 24.899 47.039 
96 1 1 23.699 23.280 45.209 
97 1 1 24.423 21.487 43.568 
98 1 1 25.031 19.264 42.353 
99 1 1 24.950 16.812 42.698 
100 1 1 24.626 14.628 43.964 
101 1 1 24.290 13.010 45.881 
102 1 1 24.917 12.602 48.190 
103 1 1 26.689 12.395 49.974 
104 1 1 28.520 11.990 51.655 
105 1 1 30.455 11.648 -0.201 
106 1 1 32.192 13.209 -0.333 
107 1 1 34.076 11.946 -1.508 
108 1 1 35.880 10.698 50.590 
109 1 1 37.525  9.324 49.145 
110 1 1 39.568 10.009 48.191 
111 1 1 42.074 10.542 48.336 
112 1 1 44.303 11.564 47.999 
113 1 1 46.145 12.827 47.974 
114 1 1 48.427 13.859 48.485 
115 1 1 50.678 15.127 48.866 
116 1 1 52.574 16.784 49.132 
117 1 1 54.534 18.320 48.979 
118 1 1 -5.199 19.862 48.993 
119 1 1 -3.192 18.765 48.494 
120 1 1 -2.020 19.444 46.330 
121 1 1 -0.539 20.283 44.447 
122 1 1  0.898 21.192 42.451 
123 1 1  2.423 22.379 40.766 
124 1 1  4.180 23.713 39.285 
125 1 1  6.663 23.309 39.265 
126 1 1  9.111 23.234 39.584 
127 1 1 10.867 24.912 38.612 
128 1 1 12.480 26.585 37.432 
129 2 1 -0.862 10.071 36.915 
130 2 1  1.423 11.140 36.865 
131 2 1  3.176 12.462 37.545 
132 2 1  4.468 14.153 39.007 
133 2 1  4.423 14.537 41.546 
134 2 1  4.129 13.922 43.766 
135 2 1  3.752 12.119 45.508 
136 2 1  5.664 10.499 46.141 
137 2 1  6.386  9.223 48.307 
138 2 1  6.706  8.300 50.668 
139 2 1  6.882  8.381 -0.423 
140 2 1  6.875  9.480  1.913 
141 2 1  7.044  9.649  4.274 
142 2 1  7.403  8.811  6.733 
143 2 1  9.100  6.950  7.661 
144 2 1  9.412 42.590  9.804 
145 2 1 10.011 41.123 11.915 
146 2 1 10.327 40.007 14.168 
147 2 1  9.560 38.815 16.013 
148 2 1  8.250 40.317 17.490 
149 2 1  6.655 42.087 18.498 
150 2 1  5.310  6.747 19.941 
151 2 1  2.953  6.722 20.992 
152 2 1  0.742  6.770 22.225 
153 2 1 -1.868  7.231 21.841 
154 2 1 -4.441  7.748 21.762 
155 2 1 -6.608  7.464 20.972 
156 2 1 54.687  8.598 18.692 
157 2 1 53.642  7.185 16.772 
158 2 1 52.509 42.941 14.668 
159 2 1 50.790  6.884 12.840 
160 2 1 48.978  7.755 11.246 
161 2 1 47.286  8.689  9.418 
162 2 1 45.459  9.444  7.828 
163 2 1 43.570 10.180  6.269 
164 2 1 41.465 10.487  5.289 
165 2 1 39.287 10.989  5.156 
166 2 1 37.232 12.661  5.042 
167 2 1 37.166 15.194  5.469 
168 2 1 37.228 17.749  5.586 
169 2 1 35.561 19.566  6.172 
170 2 1 33.888 21.414  6.716 
171 2 1 32.411 23.357  7.560 
172 2 1 30.975 25.260  8.567 
173 2 1 31.100 25.981 10.794 
174 2 1 31.902 25.550 12.928 
175 2 1 33.588 25.254 14.756 
176 2 1 35.447 25.143 16.477 
177 2 1 37.614 23.701 15.997 
178 2 1 39.905 23.696 17.137 
179 2 1 42.162 23.966 18.401 
180 2 1 44.497 24.305 19.740 
181 2 1 46.584 24.943 21.139 
182 2 1 47.269 26.134 22.980 
183 2 1 47.316 27.691 24.982 
184 2 1 47.588 29.315 26.809 
185 2 1 47.256 31.906 26.960 
186 2 1 47.905 34.200 27.045 
187 2 1 49.495 36.144 27.062 
188 2 1 51.144 38.140 27.371 
189 2 1 53.273 38.928 26.321 
190 2 1 55.586 39.532 25.469 
191 2 1 -3.799 39.700 24.772 
192 2 1 -1.317 39.836 23.964 
193 2 1  1.217 39.856 23.252 
194 2 1  3.682 40.015 22.594 
195 2 1  6.227 39.988 22.361 
196 2 1  8.861 40.286 22.467 
197 2 1 10.944 40.727 21.572 
198 2 1 10.900 43.090 21.473 
199 2 1 11.167  8.562 22.137 
200 2 1 10.911 10.983 22.754 
201 2 1 10.342 13.411 23.459 
202 2 1  8.661 14.174 25.238 
203 2 1  7.100 14.722 27.156 
204 2 1  5.045 14.904 28.407 
205 2 1  2.999 15.442 26.952 
206 2 1  0.951 16.371 25.649 
207 3 1 -0.771 22.789 37.568 
208 3 1 -0.557 24.839 36.474 
209 3 1 -1.902 26.661 35.143 
210 3 1 -2.638 28.511 33.530 
211 3 1 -3.920 28.241 31.303 
212 3 1 -5.179 28.630 28.999 
213 3 1 -6.027 28.392 26.819 
214 3 1 55.702 27.305 24.529 
215 3 1 -6.015 26.491 22.023 
216 3 1 -5.917 25.481 19.698 
217 3 1 -6.367 24.285 17.531 
218 3 1 54.734 21.875 17.059 
219 3 1 53.241 19.935 16.216 
220 3 1 53.501 17.908 14.720 
221 3 1 52.854 17.596 12.234 
222 3 1 52.217 15.539 10.755 
223 3 1 51.753 13.770  8.884 
224 3 1 51.755 11.749  7.709 
225 3 1 52.714  9.374  7.281 
226 3 1 54.248  7.926  8.841 
227 3 1 -5.996  6.695 10.465 
228 3 1 -4.877 43.041 12.584 
229 3 1 -3.961  6.127 14.997 
230 3 1 -2.581  7.296 16.423 
231 3 1 -3.292  9.469 16.777 
232 3 1 -3.988 11.553 17.094 
233 3 1 -3.930 13.991 16.186 
234 3 1 -3.921 16.153 14.719 
235 3 1 -4.013 18.540 13.776 
236 3 1 -5.010 20.126 12.481 
237 3 1 -6.896 20.878 10.835 
238 3 1 53.000 21.742  9.446 
239 3 1 51.053 20.314  8.773 
240 3 1 50.707 19.015  6.633 
241 3 1 50.481 17.327  4.757 
242 3 1 48.757 15.483  4.600 
243 3 1 47.077 13.513  4.037 
244 3 1 44.978 14.177  3.327 
245 3 1 42.623 15.055  3.343 
246 3 1 40.639 15.496  2.297 
247 3 1 40.180 17.721  1.825 
248 3 1 39.264 20.085  2.307 
249 3 1 38.388 22.442  2.975 
250 3 1 37.496 24.783  3.777 
251 3 1 35.674 25.483  2.590 
252 3 1 36.250 27.535  1.305 
253 3 1 36.952 29.727  0.162 
254 3 1 37.158 32.097 -0.843 
255 3 1 38.975 32.946 -2.600 
256 3 1 38.675 33.612 48.485 
257 3 1 38.427 34.245 46.012 
258 3 1 37.281 36.241 45.640 
259 3 1 35.514 38.102 46.005 
260 3 1 33.917 37.512 47.470 
261 3 1 33.147 36.507 49.712 
262 3 1 32.280 35.376 51.921 
263 3 1 33.372 33.429 -0.206 
264 3 1 33.205 32.691  2.280 
265 3 1 34.538 32.739  4.194 
266 3 1 36.972 33.337  3.517 
267 3 1 39.279 33.799  2.682 
268 3 1 41.435 33.251  1.764 
269 3 1 43.196 32.354  0.300 
270 3 1 42.277 31.089 -1.757 
271 3 1 41.329 29.916 49.746 
272 3 1 40.137 28.192 48.887 
273 3 1 39.325 26.454 50.570 
274 3 1 38.546 24.639 -1.293 
275 3 1 38.521 22.055 -1.632 
276 3 1 37.715 19.613 51.605 
277 3 1 37.443 17.592 50.511 
278 3 1 38.118 15.720 48.901 
279 3 1 38.250 14.359 46.887 
280 3 1 38.938 15.487 44.725 
281 3 1 37.421 16.259 42.815 
282 3 1 35.905 17.056 41.027 
283 3 1 34.491 18.036 39.018 
284 3 1 32.767 18.351 37.014 
285 4 1 21.123 40.587 18.195 
286 4 1 22.598 42.058 17.192 
287 4 1 24.254 40.750 16.009 
288 4 1 26.480 39.290 16.137 
289 4 1 28.904 39.762 16.894 
290 4 1 31.216 40.109 18.074 
291 4 1 33.214 39.985 17.126 
292 4 1 35.280 40.934 15.880 
293 4 1 37.315 42.111 14.593 
294 4 1 39.604 43.138 13.775 
295 4 1 40.343  8.593 13.928 
296 4 1 42.771  9.421 13.672 
297 4 1 45.283 10.107 13.407 
298 4 1 46.093 12.355 12.202 
299 4 1 46.696 14.450 10.825 
300 4 1 47.313 16.453  9.393 
301 4 1 46.838 18.040  7.833 
302 4 1 45.527 18.870  5.698 
303 4 1 44.376 20.449  4.530 
304 4 1 43.390 22.758  4.149 
305 4 1 42.413 24.970  3.337 
306 4 1 41.464 27.307  2.610 
307 4 1 40.315 29.093  4.215 
308 4 1 38.573 29.523  5.522 
309 4 1 36.238 29.282  6.584 
310 4 1 35.426 27.084  7.306 
311 4 1 35.195 26.720  9.919 
312 4 1 37.035 26.758 11.616 
313 4 1 38.788 27.444 13.322 
314 4 1 40.942 28.228 14.420 
315 4 1 43.231 28.850 15.149 
316 4 1 45.573 29.605 15.875 
317 4 1 47.742 30.531 16.794 
318 4 1 47.994 32.047 18.680 
319 4 1 47.858 32.280 21.214 
320 4 1 49.898 31.988 22.693 
321 4 1 51.868 32.342 24.247 
322 4 1 53.826 32.840 25.855 
323 4 1 -6.155 33.331 27.375 
324 4 1 -4.315 34.088 29.031 
325 4 1 -5.239 34.234 31.283 
326 4 1 -3.892 33.638 33.121 
327 4 1 -2.341 33.749 35.086 
328 4 1 -0.582 33.801 36.958 
329 4 1  1.708 35.051 37.258 
330 4 1  4.059 35.742 37.029 
331 4 1  6.571 35.683 36.401 
332 4 1  8.587 36.019 35.261 
333 4 1 10.322 36.996 33.611 
334 4 1 12.319 37.966 32.215 
335 4 1 14.451 38.394 30.982 
336 4 1 16.720 38.316 29.661 
337 4 1 19.076 37.856 28.578 
338 4 1 21.487 37.528 27.671 
339 4 1 23.784 37.156 26.554 
340 4 1 25.098 37.100 24.753 
341 4 1 25.220 37.463 22.227 
342 4 1 25.164 36.721 20.022 
343 4 1 24.973 34.934 18.110 
344 4 1 24.569 33.429 16.065 
345 4 1 24.071 31.971 13.893 
346 4 1 22.099 32.509 12.813 
347 4 1 20.437 33.818 11.053 
348 4 1 19.422 33.511  8.777 
349 4 1 18.651 32.287  6.728 
350 4 1 17.331 30.792  5.538 
351 4 1 16.585 29.032  7.332 
352 4 1 16.897 27.261  8.624 
353 4 1 18.416 25.204  8.972 
354 4 1 20.478 24.728  7.594 
355 4 1 22.423 23.953  6.150 
356 4 1 23.813 23.836  4.369 
357 4 1 24.541 24.480  2.012 
358 4 1 25.872 25.023  0.136 
359 4 1 28.046 25.564 -1.019 
360 4 1 30.355 25.983 51.346 
361 4 1 32.429 26.568 49.938 
362 4 1 33.971 28.558 50.464 
363 5 1 37.481 29.948 30.274 
364 5 1 38.027 31.490 32.330 
365 5 1 39.077 33.277 33.266 
366 5 1 40.025 35.547 32.778 
367 5 1 40.763 37.882 31.985 
368 5 1 42.788 38.843 30.660 
369 5 1 42.716 39.752 28.162 
370 5 1 44.789 39.690 26.677 
371 5 1 46.632 38.839 25.060 
372 5 1 48.287 37.966 23.164 
373 5 1 50.072 37.073 21.549 
374 5 1 51.634 35.776 20.007 
375 5 1 53.397 34.547 19.287 
376 5 1 55.653 35.859 19.138 
377 5 1 -4.549 34.563 18.382 
378 5 1 -3.516 33.311 16.339 
379 5 1 -2.658 31.519 15.057 
380 5 1 -3.990 29.329 14.371 
381 5 1 -5.909 28.320 13.417 
382 5 1 53.849 28.741 14.820 
383 5 1 52.589 30.966 14.756 
384 5 1 51.281 33.197 14.780 
385 5 1 50.053 35.383 14.822 
386 5 1 49.498 37.540 15.465 
387 5 1 49.778 39.883 16.575 
388 5 1 51.693 40.164 18.338 
389 5 1 53.558 40.054 20.112 
390 5 1 55.773 39.785 20.630 
391 5 1 -3.626 39.752 20.032 
392 5 1 -1.594 38.582 19.850 
393 5 1 -0.271 36.430 20.115 
394 5 1  0.854 34.069 20.369 
395 5 1  1.869 31.754 19.913 
396 5 1  2.842 29.389 19.276 
397 5 1  4.240 27.123 19.431 
398 5 1  5.783 25.045 19.323 
399 5 1  7.227 22.965 19.030 
400 5 1  8.438 20.885 18.325 
401 5 1  7.458 18.468 18.407 
402 5 1  5.740 17.011 18.246 
403 5 1  3.353 16.426 17.650 
404 5 1  0.964 17.482 18.116 
405 5 1 -1.594 17.991 18.368 
406 5 1 -4.102 17.906 18.880 
407 5 1 -6.640 17.547 19.452 
408 5 1 52.599 17.604 19.647 
409 5 1 51.008 15.953 18.465 
410 5 1 50.186 15.944 16.028 
411 5 1 49.682 13.783 15.105 
412 5 1 50.334 11.366 14.591 
413 5 1 52.434 10.611 13.317 
414 5 1 54.549 11.023 12.452 
415 5 1 -5.525 12.626 11.590 
416 5 1 -4.047 14.400 10.352 
417 5 1 -2.691 16.157  8.986 
418 5 1 -1.271 17.889  7.869 
419 5 1 -0.093 20.075  6.947 
420 5 1  0.580 22.191  8.309 
421 5 1  1.390 24.342  9.418 
422 5 1  1.274 26.303 10.626 
423 5 1  0.166 28.419  9.516 
424 5 1 -1.878 29.439  8.254 
425 5 1 -3.624 31.061  7.046 
426 5 1 -5.404 31.639  5.627 
427 5 1 -6.904 32.204  3.810 
428 5 1 52.828 32.306  4.773 
429 5 1 50.590 31.302  5.719 
430 5 1 48.557 30.680  6.901 
431 5 1 46.834 28.777  6.624 
432 5 1 47.010 26.526  7.883 
433 5 1 45.160 25.408  9.300 
434 5 1 45.069 22.917  9.916 
435 5 1 45.434 20.825 11.154 
436 5 1 46.077 19.245 13.061 
437 5 1 47.431 19.909 15.040 
438 5 1 49.175 20.710 16.268 
439 5 1 49.843 22.061 18.062 
440 5 1 50.710 23.070 20.267 
441 6 1 38.896 33.257  9.079 
442 6 1 39.966 30.867  9.484 
443 6 1 41.144 28.689 10.028 
444 6 1 40.630 26.647  8.585 
445 6 1 39.958 24.561  7.217 
446 6 1 40.438 22.054  7.661 
447 6 1 40.501 19.431  8.004 
448 6 1 41.233 17.249  8.482 
449 6 1 41.918 15.177  9.181 
450 6 1 41.637 12.592  9.372 
451 6 1 39.583 11.254 10.523 
452 6 1 37.600 10.152  9.190 
453 6 1 35.696  8.917  7.881 
454 6 1 34.293  7.569  9.322 
455 6 1 32.020  7.606  8.718 
456 6 1 29.856  6.644  7.725 
457 6 1 27.721  5.685  6.813 
458 6 1 25.389 42.161  6.021 
459 6 1 22.981 41.890  5.382 
460 6 1 20.563 41.456  4.677 
461 6 1 18.265 41.731  4.616 
462 6 1 16.614 43.221  5.267 
463 6 1 18.141  8.037  6.198 
464 6 1 19.191  9.212  7.811 
465 6 1 17.783 11.015  9.013 
466 6 1 16.115 12.429  9.245 
467 6 1 13.674 13.230  8.929 
468 6 1 12.588 11.761  7.181 
469 6 1 12.290  9.587  5.842 
470 6 1 12.007  7.251  4.741 
471 6 1 12.380 41.846  4.034 
472 6 1 12.561 39.306  3.417 
473 6 1 13.222 37.379  2.188 
474 6 1 14.337 36.060  0.254 
475 6 1 15.482 35.085 -1.762 
476 6 1 16.910 34.715 49.683 
477 6 1 18.412 34.605 47.570 
478 6 1 18.113 33.333 45.639 
479 6 1 18.070 31.260 44.095 
480 6 1 19.541 30.058 42.372 
481 6 1 20.822 28.649 40.767 
482 6 1 21.888 27.129 38.987 
483 6 1 23.083 26.960 37.092 
484 6 1 25.422 26.898 36.016 
485 6 1 27.835 26.626 35.323 
486 6 1 29.790 26.279 34.036 
487 6 1 30.932 24.975 32.178 
488 6 1 29.846 23.531 30.346 
489 6 1 28.529 22.592 28.441 
490 6 1 26.880 22.662 26.640 
491 6 1 25.109 22.566 24.810 
492 6 1 22.985 21.902 24.257 
493 6 1 21.445 23.925 24.488 
494 6 1 20.122 24.902 26.347 
495 6 1 18.773 25.154 28.259 
496 6 1 17.559 24.148 30.354 
497 6 1 16.126 22.859 32.215 
498 6 1 14.018 22.335 33.297 
499 6 1 11.533 22.904 33.963 
500 6 1  9.426 22.409 34.793 
501 6 1  7.473 20.923 35.606 
502 6 1  5.551 19.208 35.972 
503 6 1  3.633 18.093 36.682 
504 6 1  1.281 18.023 37.811 
505 6 1  0.540 17.077 40.067 
506 6 1 -0.340 16.175 42.306 
507 6 1 -1.357 15.389 44.505 
508 6 1 -2.467 14.680 46.744 
509 6 1 -4.714 13.384 46.812 
510 6 1 -7.023 12.385 47.135 
511 6 1 52.646 11.499 46.883 
512 6 1 50.603 10.503 45.641 
513 6 1 48.164 10.205 44.755 
514 6 1 45.780 10.045 43.718 
515 6 1 43.451 10.675 42.881 
516 6 1 42.479 13.095 43.208 
517 6 1 41.892 14.516 41.143 
518 6 1 41.366 15.908 38.972 
519 7 1 18.844 33.778 17.234 
520 7 1 17.346 32.138 17.653 
521 7 1 16.536 29.668 17.220 
522 7 1 15.392 27.426 16.784 
523 7 1 14.071 25.187 16.597 
524 7 1 12.728 23.011 16.375 
525 7 1 13.021 20.791 17.686 
526 7 1 13.328 18.278 16.790 
527 7 1 13.380 15.926 15.659 
528 7 1 13.357 13.568 14.437 
529 7 1 13.611 11.280 13.139 
530 7 1 13.851  8.900 12.458 
531 7 1 14.297  7.126 10.952 
532 7 1 14.165 42.433  9.297 
533 7 1 14.392 40.391  8.197 
534 7 1 15.313 38.342  7.055 
535 7 1 16.524 37.423  5.287 
536 7 1 18.124 37.438  3.296 
537 7 1 19.778 36.536  1.998 
538 7 1 21.724 35.680  3.665 
539 7 1 22.876 35.666  5.771 
540 7 1 21.728 37.463  7.375 
541 7 1 20.264 39.229  8.503 
542 7 1 19.681 41.381  9.154 
543 7 1 19.647 42.597 11.208 
544 7 1 18.900  6.698 13.348 
545 7 1 18.788  7.228 15.650 
546 7 1 18.562  7.012 18.186 
547 7 1 18.770  7.381 20.539 
548 7 1 20.934  6.636 21.715 
549 7 1 22.879 42.716 23.055 
550 7 1 24.677 41.973 24.739 
551 7 1 24.392 41.722 27.259 
552 7 1 23.117 41.379 29.000 
553 7 1 21.635 40.976 30.703 
554 7 1 21.576 40.688 33.289 
555 7 1 21.581 40.152 35.782 
556 7 1 21.370 39.521 38.259 
557 7 1 20.847 38.202 40.057 
558 7 1 19.786 36.143 41.107 
559 7 1 17.465 36.025 42.103 
560 7 1 15.164 35.793 43.198 
561 7 1 13.716 33.770 43.948 
562 7 1 12.300 31.741 44.610 
563 7 1 10.996 29.461 45.156 
564 7 1  8.346 29.443 45.342 
565 7 1  5.820 29.220 45.893 
566 7 1  3.156 29.107 46.055 
567 7 1  0.602 29.227 46.081 
568 7 1 -1.839 29.585 45.744 
569 7 1 -4.317 30.119 45.272 
570 7 1 -6.622 30.685 44.255 
571 7 1 53.954 30.853 42.416 
572 7 1 53.674 30.257 39.910 
573 7 1 54.414 28.273 38.357 
574 7 1 -6.576 26.326 36.957 
575 7 1 -6.071 24.045 35.758 
576 7 1 -5.586 23.667 33.213 
577 7 1 -4.329 23.895 31.075 
578 7 1 -2.326 24.305 29.327 
579 7 1 -0.903 25.778 28.002 
580 7 1 -0.657 27.074 26.079 
581 7 1 -1.223 27.934 23.719 
582 7 1 -1.233 26.513 21.599 
583 7 1 -1.033 27.180 19.170 
584 7 1  0.055 27.592 16.805 
585 7 1  0.697 28.801 14.880 
586 7 1  1.110 30.893 13.442 
587 7 1  0.456 32.616 12.068 
588 7 1 -1.132 34.220 10.794 
589 7 1 -3.762 34.106 10.711 
590 7 1 -6.298 33.983 10.462 
591 7 1 53.084 33.812 10.288 
592 7 1 50.441 33.978 10.264 
593 7 1 49.526 34.891  8.303 
594 7 1 48.430 35.502  6.375 
595 7 1 46.465 36.293  4.904 
596 7 1 44.572 37.044  3.400 
597 8 1 25.998 33.333  2.371 
598 8 1 27.392 33.940  4.139 
599 8 1 29.580 34.849  5.111 
600 8 1 31.388 34.704  6.515 
601 8 1 32.459 34.787  8.666 
602 8 1 33.195 35.537 10.988 
603 8 1 33.946 36.071 13.352 
604 8 1 35.653 36.160 14.826 
605 8 1 38.099 36.234 15.646 
606 8 1 40.286 37.215 16.634 
607 8 1 41.180 39.027 15.595 
608 8 1 41.834 41.267 16.687 
609 8 1 42.441 43.524 17.801 
610 8 1 42.464  8.673 19.207 
611 8 1 42.174 10.660 20.931 
612 8 1 43.221 11.767 22.559 
613 8 1 44.828 11.767 24.648 
614 8 1 46.492 11.710 26.573 
615 8 1 48.452 11.384 28.243 
616 8 1 50.389 10.607 29.739 
617 8 1 51.895 10.787 31.599 
618 8 1 51.430 13.026 32.780 
619 8 1 50.198 13.633 34.949 
620 8 1 49.197 13.909 37.231 
621 8 1 48.002 14.054 39.564 
622 8 1 46.797 13.945 41.833 
623 8 1 46.572 15.859 43.630 
624 8 1 46.603 17.780 45.331 
625 8 1 46.307 19.734 46.969 
626 8 1 47.589 19.971 48.874 
627 8 1 49.742 20.349 50.237 
628 8 1 51.841 20.784 -1.617 
629 8 1 52.920 20.759  0.593 
630 8 1 53.350 20.670  3.116 
631 8 1 54.076 22.759  3.912 
632 8 1 -5.496 22.687  5.122 
633 8 1 -4.384 21.605  6.905 
634 8 1 -5.559 19.240  6.811 
635 8 1 -6.698 16.986  6.633 
636 8 1 54.709 14.861  5.780 
637 8 1 -6.688 15.290  3.229 
638 8 1 -6.346 15.914  0.783 
639 8 1 -5.038 16.064 -1.060 
640 8 1 -2.563 15.696 -1.837 
641 8 1 -0.005 15.446 51.540 
642 8 1  0.997 13.469 -1.625 
643 8 1  1.709 11.207 -2.599 
644 8 1  1.987  8.813 49.930 
645 8 1  1.630  6.438 49.004 
646 8 1  1.232 41.027 47.952 
647 8 1  0.687 38.610 47.301 
648 8 1  0.388 37.902 45.097 
649 8 1  1.200 37.163 42.769 
650 8 1  3.480 37.899 41.814 
651 8 1  5.353 38.758 40.508 
652 8 1  7.079 39.755 38.892 
653 8 1  8.827 40.741 37.429 
654 8 1 10.757 41.747 36.515 
655 8 1 12.715 43.127 36.544 
656 8 1 14.048  8.256 36.636 
657 8 1 16.230  9.237 36.694 
658 8 1 18.830  9.228 36.573 
659 8 1 20.128  8.163 34.957 
660 8 1 21.036  8.016 32.540 
661 8 1 23.199  8.495 31.999 
662 8 1 24.589  8.571 30.042 
663 8 1 25.337  9.061 27.841 
664 8 1 25.507  9.195 25.286 
665 8 1 26.103  9.455 22.695 
666 8 1 25.038  8.378 20.678 
667 8 1 26.176  7.832 18.367 
668 8 1 27.290  7.418 16.089 
669 8 1 28.314  6.882 13.857 
670 8 1 29.782  5.876 12.459 
671 8 1 31.690 41.273 11.995 
672 8 1 33.900 40.592 11.212 
673 8 1 35.978 39.951 10.269 
674 8 1 38.043 38.841 10.745 
675 9 1 19.340 12.909 28.158 
676 9 1 19.439 10.467 27.397 
677 9 1 20.030  8.177 26.259 
678 9 1 18.972  5.853 26.095 
679 9 1 19.494 40.808 24.536 
680 9 1 19.970 38.654 23.109 
681 9 1 20.512 36.338 21.882 
682 9 1 18.591 34.918 21.889 
683 9 1 16.200 34.211 22.004 
684 9 1 14.564 32.809 21.785 
685 9 1 13.673 30.445 21.250 
686 9 1 12.580 28.063 20.700 
687 9 1 11.223 26.220 21.277 
688 9 1  9.784 24.587 22.686 
689 9 1  8.303 24.836 24.624 
690 9 1  6.495 24.899 26.426 
691 9 1  4.552 25.079 27.912 
692 9 1  3.199 26.120 29.533 
693 9 1  2.370 27.922 31.242 
694 9 1  1.193 29.931 31.681 
695 9 1 -0.083 31.958 30.806 
696 9 1 -0.901 32.322 28.375 
697 9 1 -1.949 32.889 26.072 
698 9 1 -2.541 32.372 23.917 
699 9 1 -3.385 31.247 22.076 
700 9 1 -5.398 30.588 20.541 
701 9 1 54.229 30.573 19.268 
702 9 1 52.284 28.961 19.430 
703 9 1 51.151 27.205 20.541 
704 9 1 51.207 27.563 23.072 
705 9 1 51.490 28.101 25.598 
706 9 1 51.502 28.812 28.087 
707 9 1 51.709 30.220 29.993 
708 9 1 52.284 32.504 31.097 
709 9 1 52.610 34.923 31.941 
710 9 1 52.780 37.457 32.316 
711 9 1 54.402 39.264 31.361 
712 9 1 -5.655 40.928 30.458 
713 9 1 -4.351 42.803 29.187 
714 9 1 -2.921  7.384 27.854 
715 9 1 -1.235  9.087 26.782 
716 9 1  0.651 10.679 25.966 
717 9 1  3.004 11.114 25.133 
718 9 1  5.494 10.856 24.373 
719 9 1  7.246  8.916 24.802 
720 9 1  8.992  7.105 25.488 
721 9 1 10.410 42.285 26.555 
722 9 1 11.762 40.386 27.677 
723 9 1 13.551 38.960 26.577 
724 9 1 15.270 37.527 25.308 
725 9 1 16.687 35.450 25.895 
726 9 1 18.387 33.448 26.486 
727 9 1 20.562 33.147 25.336 
728 9 1 23.065 32.963 24.450 
729 9 1 25.601 32.371 23.779 
730 9 1 27.586 32.372 25.511 
731 9 1 29.677 32.686 27.026 
732 9 1 31.608 32.731 28.671 
733 9 1 32.606 31.790 30.585 
734 9 1 32.729 30.340 32.579 
735 9 1 32.915 29.468 34.786 
736 9 1 34.439 29.538 36.345 
737 9 1 36.340 29.286 37.768 
738 9 1 37.652 28.357 39.672 
739 9 1 38.630 27.149 41.787 
740 9 1 39.792 25.627 43.490 
741 9 1 40.884 24.177 45.225 
742 9 1 41.764 22.991 47.286 
743 9 1 42.308 21.847 49.555 
744 9 1 42.575 20.884 51.992 
745 9 1 44.116 20.388  0.114 
746 9 1 45.508 18.340 -0.547 
747 9 1 47.967 17.977  0.315 
748 9 1 49.487 15.846  0.089 
749 9 1 50.878 13.551  0.175 
750 9 1 52.749 11.674  0.027 
751 9 1 54.091 10.321 -1.194 
752 9 1 54.596  8.762 50.631 
753 10 1  9.960 27.867  6.644 
754 10 1  8.894 25.727  7.258 
755 10 1  9.184 24.245  9.277 
756 10 1  9.252 23.838 11.516 
757 10 1  8.975 24.904 13.855 
758 10 1  8.812 25.941 16.183 
759 10 1  9.456 28.196 17.162 
760 10 1 10.575 30.109 17.555 
761 10 1 12.309 31.933 16.951 
762 10 1 13.550 34.152 16.480 
763 10 1 14.353 36.559 15.961 
764 10 1 15.280 38.983 15.630 
765 10 1 15.083 41.334 15.340 
766 10 1 13.783  6.457 15.934 
767 10 1 12.365  8.461 16.880 
768 10 1 11.913 10.690 17.548 
769 10 1 12.095 13.065 18.536 
770 10 1 11.620 15.178 19.926 
771 10 1 11.163 17.396 21.265 
772 10 1  9.949 19.007 22.442 
773 10 1  8.627 19.624 24.609 
774 10 1  7.278 20.355 26.704 
775 10 1  4.652 20.291 26.993 
776 10 1  2.186 20.484 27.584 
777 10 1 -0.301 20.189 28.446 
778 10 1 -2.774 19.780 29.160 
779 10 1 -5.205 19.278 29.886 
780 10 1 54.226 18.969 30.638 
781 10 1 51.699 18.955 31.351 
782 10 1 50.757 18.443 33.761 
783 10 1 49.980 20.086 35.770 
784 10 1 50.403 21.838 37.187 
785 10 1 52.002 23.312 38.576 
786 10 1 53.623 22.293 40.277 
787 10 1 55.463 21.786 42.133 
788 10 1 -4.864 20.162 41.601 
789 10 1 -5.209 18.161 43.294 
790 10 1 54.747 16.407 43.198 
791 10 1 52.921 14.683 42.873 
792 10 1 51.733 13.158 41.552 
793 10 1 53.130 13.258 39.304 
794 10 1 54.112 13.481 36.916 
795 10 1 55.603 13.664 34.766 
796 10 1 -5.467 14.462 32.838 
797 10 1 54.627 14.419 31.011 
798 10 1 53.149 14.519 28.961 
799 10 1 51.499 14.582 27.038 
800 10 1 49.859 14.711 25.086 
801 10 1 48.321 14.961 22.990 
802 10 1 46.827 14.930 20.865 
803 10 1 45.464 14.731 18.807 
804 10 1 44.125 14.288 16.686 
805 10 1 43.091 13.976 14.374 
806 10 1 42.077 15.856 13.651 
807 10 1 42.338 17.867 14.722 
808 10 1 42.694 19.408 16.769 
809 10 1 44.780 19.436 18.265 
810 10 1 46.718 19.456 19.982 
811 10 1 48.588 19.140 21.700 
812 10 1 50.496 18.422 23.283 
813 10 1 51.800 19.856 25.014 
814 10 1 54.061 18.810 25.596 
815 10 1 -6.002 17.250 25.251 
816 10 1 54.850 15.377 23.672 
817 10 1 53.491 13.954 22.077 
818 10 1 52.064 12.491 20.621 
819 10 1 50.875 10.656 19.363 
820 10 1 49.479  8.906 17.998 
821 10 1 47.887  7.240 16.813 
822 10 1 46.487 42.475 15.600 
823 10 1 45.073 42.357 13.448 
824 10 1 43.571 42.341 11.385 
825 10 1 41.984 42.606  9.384 
826 10 1 40.661  5.870  7.145 
827 10 1 38.908  6.133  5.159 
828 10 1 37.309  6.695  3.179 
829 10 1 36.073  8.387  2.025 
830 10 1 34.281  9.290  3.651 
831 11 1 26.416  9.681  1.323 
832 11 1 24.566 10.113 -0.305 
833 11 1 22.642 10.389 -1.939 
834 11 1 20.951 10.937 49.720 
835 11 1 19.292 11.366 47.871 
836 11 1 19.688 13.132 46.019 
837 11 1 19.809 15.707 45.817 
838 11 1 18.571 17.202 44.079 
839 11 1 19.374 17.266 41.840 
840 11 1 19.636 16.422 39.422 
841 11 1 20.151 15.270 37.071 
842 11 1 18.516 13.734 35.841 
843 11 1 18.602 13.452 33.240 
844 11 1 17.264 11.696 32.044 
845 11 1 15.453 10.730 31.351 
846 11 1 13.341  9.801 31.471 
847 11 1 11.891  7.824 31.865 
848 11 1 10.934  5.453 31.700 
849 11 1  9.311 40.761 32.088 
850 11 1  6.919 40.364 32.695 
851 11 1  4.504 39.657 33.474 
852 11 1  2.842 38.053 33.314 
853 11 1  1.602 35.958 32.556 
854 11 1  2.012 35.502 30.369 
855 11 1  2.173 35.945 27.939 
856 11 1  3.256 35.954 25.976 
857 11 1  5.352 35.958 24.429 
858 11 1  7.805 35.568 25.049 
859 11 1 10.296 35.039 25.402 
860 11 1 12.319 33.786 25.801 
861 11 1 12.677 33.611 28.285 
862 11 1 13.260 33.456 30.796 
863 11 1 13.721 33.199 33.417 
864 11 1 13.109 33.525 35.681 
865 11 1 10.898 32.753 35.251 
866 11 1  9.447 31.023 35.260 
867 11 1  8.540 28.680 35.664 
868 11 1  6.880 27.100 35.576 
869 11 1  4.864 26.031 35.067 
870 11 1  3.874 24.235 33.888 
871 11 1  5.336 23.012 32.115 
872 11 1  7.297 23.254 30.826 
873 11 1  8.435 25.493 31.487 
874 11 1  8.392 27.827 31.433 
875 11 1  7.988 29.319 29.442 
876 11 1  5.691 30.413 28.828 
877 11 1  3.533 30.699 27.840 
878 11 1  2.997 30.101 25.414 
879 11 1  3.554 28.563 23.705 
880 11 1  3.554 25.981 23.476 
881 11 1  3.731 23.480 23.059 
882 11 1  4.074 20.960 22.524 
883 11 1  4.309 18.414 22.379 
884 11 1  4.635 15.951 21.969 
885 11 1  5.586 13.560 21.417 
886 11 1  6.756 11.500 20.467 
887 11 1  7.454  9.978 18.802 
888 11 1  8.086  9.097 16.478 
889 11 1  9.099  8.407 14.214 
890 11 1  9.006  9.548 11.925 
891 11 1  8.217 11.199 10.400 
892 11 1  7.439 12.907  9.094 
893 11 1  7.554 14.520  7.017 
894 11 1  7.563 16.117  5.006 
895 11 1  9.061 18.124  4.228 
896 11 1 10.218 20.047  4.419 
897 11 1 11.327 21.743  6.019 
898 11 1 13.434 22.114  5.378 
899 11 1 15.518 22.686  4.230 
900 11 1 17.535 21.682  3.938 
901 11 1 19.636 20.674  3.578 
902 11 1 21.575 19.521  3.044 
903 11 1 21.913 17.537  4.659 
904 11 1 22.008 15.440  6.145 
905 11 1 21.715 13.425  7.689 
906 11 1 21.927 11.768  9.395 
907 11 1 23.116 10.368 11.244 
908 11 1 23.933  7.934 11.173 
909 12 1 44.963 21.992 35.088 
910 12 1 42.935 20.419 35.309 
911 12 1 40.670 20.054 34.775 
912 12 1 38.338 20.343 33.799 
913 12 1 37.624 18.948 32.214 
914 12 1 36.839 16.636 31.426 
915 12 1 37.027 14.795 30.108 
916 12 1 37.501 14.180 27.874 
917 12 1 35.969 12.124 27.378 
918 12 1 34.482 10.063 27.106 
919 12 1 34.161  8.077 25.907 
920 12 1 34.784  6.151 24.369 
921 12 1 35.061 41.192 22.804 
922 12 1 35.034 39.231 21.196 
923 12 1 35.460 37.060 19.980 
924 12 1 36.786 35.231 19.679 
925 12 1 39.207 34.445 19.177 
926 12 1 41.747 33.858 18.950 
927 12 1 43.908 35.332 18.714 
928 12 1 44.713 37.253 18.050 
929 12 1 44.969 39.494 19.308 
930 12 1 46.304 41.098 20.254 
931 12 1 48.570 41.836 21.349 
932 12 1 50.453 42.344 22.899 
933 12 1 51.214 42.520 25.090 
934 12 1 50.824  5.738 27.639 
935 12 1 51.139  5.905 30.231 
936 12 1 51.961  6.348 32.580 
937 12 1 52.913  7.565 34.331 
938 12 1 55.275  8.209 34.764 
939 12 1 -4.181  8.247 34.445 
940 12 1 -1.919  7.091 33.636 
941 12 1  0.205  6.077 32.632 
942 12 1  2.420 43.081 31.754 
943 12 1  4.703  7.110 31.219 
944 12 1  6.870  8.125 30.342 
945 12 1  9.009  9.201 29.432 
946 12 1  9.472 11.535 29.487 
947 12 1 10.093 13.803 30.435 
948 12 1 10.449 16.130 31.381 
949 12 1 10.160 18.377 31.714 
950 12 1  8.032 18.606 30.894 
951 12 1  5.531 18.060 30.683 
952 12 1  3.401 18.983 31.843 
953 12 1  1.104 20.045 32.568 
954 12 1 -1.073 21.249 33.444 
955 12 1 -3.261 19.984 33.951 
956 12 1 -5.203 18.366 34.689 
957 12 1 -7.005 18.910 36.346 
958 12 1 53.691 17.516 38.137 
959 12 1 51.696 18.016 39.786 
960 12 1 50.804 19.182 41.496 
961 12 1 50.756 20.468 43.648 
962 12 1 51.559 22.049 45.596 
963 12 1 52.111 23.758 47.591 
964 12 1 54.401 23.619 48.002 
965 12 1 -4.946 24.025 47.562 
966 12 1 -2.439 24.404 47.232 
967 12 1  0.061 24.323 46.790 
968 12 1  2.500 24.173 46.286 
969 12 1  4.967 24.024 45.834 
970 12 1  7.412 23.991 45.406 
971 12 1  9.882 23.766 44.797 
972 12 1 11.438 25.494 43.579 
973 12 1 13.979 25.532 43.049 
974 12 1 15.404 26.904 41.324 
975 12 1 16.781 25.746 39.575 
976 12 1 18.189 24.794 37.591 
977 12 1 19.562 23.881 35.582 
978 12 1 20.709 22.855 33.516 
979 12 1 21.938 21.665 31.624 
980 12 1 23.189 20.448 29.755 
981 12 1 23.568 18.941 28.150 
982 12 1 22.629 17.312 26.358 
983 12 1 21.675 15.513 24.825 
984 12 1 21.436 13.908 23.097 
985 12 1 21.976 12.528 21.098 
986 12 1 22.189 10.993 19.177 