LAMMPS data file generated by aa2cg.

2000 atoms
1 atom types
1975 bonds
1 bond types
1950 angles
1 angle types
1925 dihedrals
1 dihedral types

 0.000 42.169 xlo xhi
 0.000 50.358 ylo yhi
 0.000 57.198 zlo zhi

Masses

1 24.022

Atoms # molecular

1 1 1 45.067 15.619  6.092 
2 1 1 42.355 16.853 -3.151 
3 2 1 38.165 20.604 16.945 
4 2 1  9.964 38.701 42.414 
5 3 1 35.083  2.370 49.134 
6 3 1 15.486 11.619 12.494 
7 4 1 33.136 17.718 45.999 
8 4 1  3.675 36.219  5.017 
9 5 1 30.279 24.078 16.896 
10 5 1 21.324  7.955 11.280 
11 6 1  7.406 44.331 36.940 
12 6 1 28.587  4.443 29.845 
13 7 1 29.227 34.188 19.979 
14 7 1  5.980  8.712 22.403 
15 8 1 30.491 21.650 23.214 
16 8 1 13.217 31.183 -0.094 
17 9 1  8.622  2.659 45.150 
18 9 1 15.167 44.130  4.430 
19 10 1 31.825 44.748  9.515 
20 10 1 37.916  3.324 28.731 
21 11 1 41.545 14.653 36.816 
22 11 1 43.918 38.824 48.904 
23 12 1 14.333 26.992 23.608 
24 12 1  3.708 24.989 52.549 
25 13 1  5.275 45.429 25.081 
26 13 1 28.210 30.172 48.570 
27 14 1 36.331 20.969 34.213 
28 14 1 24.689 11.829 53.159 
29 15 1 21.097 41.173 30.034 
30 15 1 17.673 44.342 34.630 
31 16 1 43.350 36.350 37.748 
32 16 1 19.007 14.970 34.193 
33 17 1 13.390 36.036  0.624 
34 17 1 18.539 16.709  7.829 
35 18 1 11.298 -0.517 48.596 
36 18 1 32.463 48.090 19.861 
37 19 1 36.287 44.822 17.986 
38 19 1 34.308 39.497 31.900 
39 20 1 29.976 37.731 -0.822 
40 20 1  9.394 38.412 21.319 
41 21 1  6.140 17.832 34.716 
42 21 1 31.288 34.001 29.314 
43 22 1 37.900 48.234 48.174 
44 22 1 42.066 18.791  7.595 
45 23 1 20.332 20.120  5.163 
46 23 1 20.845 13.779 -3.003 
47 24 1  8.744 18.721 48.539 
48 24 1 33.718 11.274 33.970 
49 25 1 13.464 21.199 32.010 
50 25 1  4.656 13.812 31.961 
51 1 1  3.902 16.410  8.338 
52 1 1 45.464 15.553 10.790 
53 1 1 44.976 14.607 13.142 
54 1 1 44.686 13.513 15.506 
55 1 1 43.905 14.679 17.688 
56 1 1 42.839 15.534 19.826 
57 1 1 41.927 17.183 21.215 
58 1 1 40.604 19.079 21.599 
59 1 1 38.531 20.688 21.682 
60 1 1 37.655 22.861 21.473 
61 1 1 38.075 25.353 20.906 
62 1 1 40.234 25.714 20.156 
63 1 1 42.385 24.902 19.718 
64 1 1 43.026 22.486 20.259 
65 1 1 42.941 20.646 18.453 
66 1 1 42.918 19.003 16.481 
67 1 1 42.236 18.566 14.423 
68 1 1 40.835 18.155 12.643 
69 1 1 38.715 17.154 11.664 
70 1 1 36.187 17.057 11.145 
71 1 1 33.529 16.931 10.989 
72 1 1 31.729 16.756  9.765 
73 1 1 30.702 15.971  7.529 
74 1 1 29.660 15.076  5.354 
75 1 1 27.961 13.930  4.289 
76 1 1 25.602 12.913  4.094 
77 1 1 24.464 11.034  5.507 
78 1 1 23.915  9.208  7.024 
79 1 1 26.141  8.245  7.949 
80 1 1 28.359  8.223  8.910 
81 1 1 30.781  9.023  9.135 
82 1 1 32.015 10.706  7.979 
83 1 1 32.067 11.274  5.426 
84 1 1 30.457  9.856  4.026 
85 1 1 28.270  8.937  3.216 
86 1 1 26.522  7.757  1.649 
87 1 1 24.744  6.759  0.032 
88 1 1 23.773  5.538 -2.049 
89 1 1 22.391  4.347 -3.862 
90 1 1 20.655  3.582 51.615 
91 1 1 19.069  5.144 50.294 
92 1 1 17.705  6.857 49.015 
93 1 1 15.769  8.444 49.429 
94 1 1 15.154 10.458 48.225 
95 1 1 14.916 12.827 47.276 
96 1 1 13.974 14.680 45.941 
97 1 1 12.524 16.209 44.423 
98 1 1 10.800 17.978 44.873 
99 1 1 11.272 20.504 44.357 
100 1 1 11.990 22.955 44.407 
101 1 1 11.195 24.628 42.571 
102 1 1  9.452 26.577 42.927 
103 1 1  8.956 28.447 41.181 
104 1 1  8.149 30.187 39.459 
105 1 1  7.127 32.009 38.169 
106 1 1  5.333 32.921 36.925 
107 1 1  3.200 32.615 35.374 
108 1 1 43.054 32.893 34.312 
109 1 1 40.706 33.181 33.440 
110 1 1 39.985 32.530 31.316 
111 1 1 38.182 33.932 30.816 
112 1 1 37.155 36.005 30.461 
113 1 1 38.449 38.162 29.957 
114 1 1 38.719 40.407 30.196 
115 1 1 39.397 42.289 31.568 
116 1 1 39.716 41.785 34.114 
117 1 1 39.727 40.962 36.490 
118 1 1 39.711 39.564 38.626 
119 1 1 39.698 37.960 40.640 
120 1 1 39.645 36.058 42.418 
121 1 1 39.599 34.212 44.207 
122 1 1 39.618 32.567 46.067 
123 1 1 39.669 30.647 47.779 
124 1 1 39.952 28.617 49.332 
125 1 1 40.365 26.491 50.731 
126 1 1 41.093 24.319 51.986 
127 1 1 41.650 21.978 -4.253 
128 1 1 42.092 19.470 -3.586 
129 2 1 36.915 18.545 17.300 
130 2 1 38.517 16.489 17.409 
131 2 1 39.388 14.683 15.773 
132 2 1 39.907 13.280 13.833 
133 2 1 40.648 12.215 11.896 
134 2 1 42.533 11.666 10.240 
135 2 1 44.654 11.261  8.817 
136 2 1  4.678 11.243  7.387 
137 2 1  6.734 12.711  7.773 
138 2 1  8.142 14.440  8.610 
139 2 1  8.781 16.146 10.465 
140 2 1  9.725 17.766 12.261 
141 2 1 10.936 18.498 14.053 
142 2 1 12.731 18.608 15.641 
143 2 1 14.525 18.739 17.137 
144 2 1 14.864 21.222 17.916 
145 2 1 15.006 23.771 18.665 
146 2 1 15.266 26.153 18.683 
147 2 1 14.519 28.581 18.246 
148 2 1 12.543 29.216 16.701 
149 2 1 10.483 29.904 15.337 
150 2 1  8.564 30.653 13.976 
151 2 1  6.366 31.534 12.794 
152 2 1  4.248 32.210 11.495 
153 2 1 44.051 32.921 10.873 
154 2 1 43.019 35.313 11.348 
155 2 1 41.575 37.369 12.009 
156 2 1 40.416 39.599 12.665 
157 2 1 39.755 41.932 13.321 
158 2 1 38.813 44.178 13.870 
159 2 1 37.816 46.507 14.291 
160 2 1 36.377 48.424 15.103 
161 2 1 34.834 -0.127 16.050 
162 2 1 33.203  1.503 17.102 
163 2 1 31.410  3.004 18.191 
164 2 1 30.313  4.180 19.856 
165 2 1 30.563  5.398 22.118 
166 2 1 30.724  6.704 24.319 
167 2 1 30.932  7.902 26.563 
168 2 1 31.158  9.142 28.855 
169 2 1 30.619 11.322 28.658 
170 2 1 28.150 11.604 29.650 
171 2 1 26.495  9.911 29.074 
172 2 1 25.844  8.047 28.010 
173 2 1 25.897  6.475 26.039 
174 2 1 26.172  4.958 24.003 
175 2 1 25.442  3.695 22.020 
176 2 1 23.948  2.348 20.567 
177 2 1 22.247  1.688 18.729 
178 2 1 20.274  1.301 17.117 
179 2 1 18.212  0.931 15.763 
180 2 1 17.053  0.778 13.895 
181 2 1 16.641  0.954 11.396 
182 2 1 16.173  1.267  8.927 
183 2 1 15.808  1.383  6.388 
184 2 1 15.507  1.365  3.803 
185 2 1 14.333  1.373  1.816 
186 2 1 12.908  3.529  1.216 
187 2 1 11.539  5.704  1.152 
188 2 1 11.253  8.061  0.955 
189 2 1 12.081 10.360  0.190 
190 2 1 13.005 12.731 -0.257 
191 2 1 13.832 15.000 -1.069 
192 2 1 14.933 17.157 -1.955 
193 2 1 15.941 19.407 -2.624 
194 2 1 17.887 19.288 -3.937 
195 2 1 19.430 19.409 51.522 
196 2 1 20.378 20.092 49.212 
197 2 1 20.299 22.378 48.021 
198 2 1 20.171 24.511 46.640 
199 2 1 19.915 26.710 45.333 
200 2 1 19.810 28.812 43.831 
201 2 1 18.968 30.851 42.393 
202 2 1 18.265 32.917 41.440 
203 2 1 17.341 35.352 41.384 
204 2 1 16.258 37.746 41.378 
205 2 1 14.775 38.943 43.192 
206 2 1 12.165 38.890 43.280 
207 3 1 32.991  0.975 48.556 
208 3 1 30.775  0.649 47.198 
209 3 1 28.639  0.861 45.693 
210 3 1 26.418  1.148 44.431 
211 3 1 24.084  1.363 43.441 
212 3 1 21.802  1.829 42.405 
213 3 1 19.449  2.524 41.493 
214 3 1 17.790  1.263 39.833 
215 3 1 15.986 -0.570 40.310 
216 3 1 14.278 47.928 40.872 
217 3 1 13.556 46.025 41.809 
218 3 1 13.963 43.967 43.397 
219 3 1 16.323 43.034 43.947 
220 3 1 18.680 42.176 44.126 
221 3 1 19.178 39.803 45.010 
222 3 1 19.728 37.343 45.487 
223 3 1 19.448 34.970 46.325 
224 3 1 19.031 32.573 47.275 
225 3 1 18.352 30.227 48.120 
226 3 1 19.983 28.601 49.316 
227 3 1 21.668 26.785 50.072 
228 3 1 23.792 25.955 50.531 
229 3 1 26.255 26.200 50.926 
230 3 1 28.774 26.664 50.856 
231 3 1 30.105 27.759 52.735 
232 3 1 31.708 29.068 -2.823 
233 3 1 32.167 30.585 -1.128 
234 3 1 31.177 32.832 -1.863 
235 3 1 28.932 32.727 -1.725 
236 3 1 26.688 31.725 -2.378 
237 3 1 24.505 30.480 -2.798 
238 3 1 22.201 29.470 -3.389 
239 3 1 19.876 29.089 -3.489 
240 3 1 17.288 29.354 -3.729 
241 3 1 14.796 29.073 -4.242 
242 3 1 12.916 27.991 53.175 
243 3 1 11.368 26.727 -2.723 
244 3 1  9.986 28.229 -1.160 
245 3 1  8.528 29.659  0.408 
246 3 1  7.250 31.357  1.889 
247 3 1  6.365 31.108  4.231 
248 3 1  6.390 30.173  6.573 
249 3 1  6.911 28.674  8.593 
250 3 1  7.439 27.368 10.718 
251 3 1  8.025 25.838 12.748 
252 3 1  8.995 24.287 14.607 
253 3 1  9.869 22.959 16.634 
254 3 1 10.677 21.947 19.007 
255 3 1 11.464 21.386 21.345 
256 3 1 13.613 20.581 22.575 
257 3 1 15.644 19.521 22.496 
258 3 1 17.500 18.241 21.174 
259 3 1 18.356 18.331 18.646 
260 3 1 19.693 19.043 16.936 
261 3 1 19.791 21.417 16.875 
262 3 1 18.800 23.618 16.183 
263 3 1 17.763 25.808 15.209 
264 3 1 17.221 28.107 14.260 
265 3 1 16.992 30.415 14.445 
266 3 1 17.954 32.802 14.827 
267 3 1 18.858 34.041 16.887 
268 3 1 19.922 34.351 19.044 
269 3 1 20.975 34.207 21.386 
270 3 1 22.009 32.082 22.426 
271 3 1 22.202 29.810 23.240 
272 3 1 21.338 27.460 23.723 
273 3 1 20.318 25.136 24.056 
274 3 1 19.119 22.937 24.779 
275 3 1 18.983 20.821 25.721 
276 3 1 18.986 18.612 26.526 
277 3 1 19.204 16.439 27.286 
278 3 1 19.158 14.670 25.319 
279 3 1 18.942 13.112 23.308 
280 3 1 17.488 11.763 22.124 
281 3 1 16.101 10.334 20.983 
282 3 1 15.491  8.943 18.878 
283 3 1 15.211  9.300 16.403 
284 3 1 15.256 10.489 14.423 
285 4 1 31.181 16.497 47.219 
286 4 1 29.757 14.444 46.662 
287 4 1 29.046 14.624 44.499 
288 4 1 29.756 15.037 42.010 
289 4 1 30.283 15.219 39.483 
290 4 1 32.283 16.403 38.412 
291 4 1 32.801 16.790 35.840 
292 4 1 34.938 15.648 34.756 
293 4 1 37.180 15.012 33.619 
294 4 1 39.096 14.362 31.918 
295 4 1 41.018 13.890 30.217 
296 4 1 42.402 15.302 28.560 
297 4 1 44.222 16.736 27.942 
298 4 1 46.108 18.281 28.610 
299 4 1  5.956 19.706 29.353 
300 4 1  8.025 21.086 30.145 
301 4 1 10.008 22.331 29.653 
302 4 1 11.485 23.694 27.981 
303 4 1 10.882 24.176 25.533 
304 4 1  9.538 24.093 23.641 
305 4 1  7.624 23.243 22.227 
306 4 1  5.388 22.473 23.151 
307 4 1  3.200 21.270 23.931 
308 4 1 43.310 20.842 25.038 
309 4 1 41.207 21.297 26.376 
310 4 1 39.325 23.086 25.933 
311 4 1 36.968 22.949 26.976 
312 4 1 35.412 24.506 25.973 
313 4 1 35.477 27.008 26.395 
314 4 1 35.545 29.591 26.678 
315 4 1 35.676 32.134 26.931 
316 4 1 35.674 34.638 27.255 
317 4 1 36.460 36.629 25.802 
318 4 1 37.261 38.899 24.770 
319 4 1 38.153 40.893 23.581 
320 4 1 39.022 42.557 21.851 
321 4 1 40.092 43.738 19.928 
322 4 1 41.106 45.044 17.902 
323 4 1 42.114 46.869 16.730 
324 4 1 42.977 49.382 16.539 
325 4 1 43.372  1.526 16.133 
326 4 1 44.202  3.385 14.949 
327 4 1  4.602  3.166 14.488 
328 4 1  5.908  4.889 13.166 
329 4 1  8.475  4.688 12.565 
330 4 1 10.999  4.765 11.858 
331 4 1 13.432  5.060 11.117 
332 4 1 15.404  5.792  9.597 
333 4 1 17.079  6.823  7.969 
334 4 1 19.116  7.943  6.880 
335 4 1 19.393 10.552  6.312 
336 4 1 19.692 12.999  5.505 
337 4 1 21.680 14.416  5.963 
338 4 1 23.393 16.275  6.613 
339 4 1 24.244 17.409  4.581 
340 4 1 24.963 17.877  2.326 
341 4 1 24.433 15.833  0.842 
342 4 1 23.616 13.770  0.542 
343 4 1 22.656 11.549  1.255 
344 4 1 21.527  9.296  2.043 
345 4 1 20.442  7.124  2.762 
346 4 1 19.856  4.750  3.614 
347 4 1 20.192  3.877  5.992 
348 4 1 20.314  3.273  8.508 
349 4 1 20.710  2.524 10.983 
350 4 1 22.195  2.002 12.766 
351 4 1 24.524  2.151 13.983 
352 4 1 27.054  2.368 14.678 
353 4 1 29.141  1.624 14.279 
354 4 1 31.021  0.329 13.223 
355 4 1 32.911 -0.858 11.815 
356 4 1 34.681 47.931 10.682 
357 4 1 36.430 46.232  9.827 
358 4 1 37.862 44.417  8.826 
359 4 1 39.396 43.030  7.512 
360 4 1 40.908 41.813  5.695 
361 4 1 42.599 40.287  4.963 
362 4 1 44.244 38.303  5.024 
363 5 1 29.902 26.422 18.041 
364 5 1 29.682 28.476 19.493 
365 5 1 27.620 29.202 20.221 
366 5 1 27.495 29.143 22.916 
367 5 1 26.430 27.175 24.291 
368 5 1 25.688 25.178 25.535 
369 5 1 24.717 23.259 26.899 
370 5 1 22.425 23.102 28.069 
371 5 1 22.445 24.028 30.199 
372 5 1 22.707 25.830 31.996 
373 5 1 22.690 28.456 31.507 
374 5 1 20.602 29.642 31.553 
375 5 1 20.048 31.898 30.818 
376 5 1 19.392 34.306 30.743 
377 5 1 18.675 36.791 30.373 
378 5 1 16.671 37.777 28.995 
379 5 1 14.930 38.675 27.450 
380 5 1 13.282 39.645 25.712 
381 5 1 11.264 40.752 24.534 
382 5 1 11.110 42.004 22.278 
383 5 1 12.272 43.398 20.720 
384 5 1 14.174 44.080 22.233 
385 5 1 15.890 44.802 23.946 
386 5 1 17.787 45.472 25.721 
387 5 1 19.680 45.833 27.274 
388 5 1 21.888 46.383 28.581 
389 5 1 23.893 45.627 29.505 
390 5 1 26.111 44.317 29.914 
391 5 1 26.566 41.845 29.207 
392 5 1 25.857 39.864 28.432 
393 5 1 23.881 38.309 27.689 
394 5 1 22.146 36.680 26.649 
395 5 1 20.427 35.156 25.707 
396 5 1 18.366 34.024 24.582 
397 5 1 15.998 34.964 24.718 
398 5 1 13.361 35.226 24.561 
399 5 1 11.176 34.859 25.455 
400 5 1  9.474 33.950 27.242 
401 5 1 10.086 32.360 29.306 
402 5 1 10.924 31.096 31.334 
403 5 1 11.974 30.149 33.445 
404 5 1 10.742 28.691 35.176 
405 5 1  8.615 28.280 35.463 
406 5 1  6.211 28.134 34.565 
407 5 1  5.566 29.532 32.451 
408 5 1  5.111 30.855 30.268 
409 5 1  4.155 32.394 28.391 
410 5 1  4.025 32.063 25.877 
411 5 1  4.117 32.154 23.253 
412 5 1 45.345 34.012 21.661 
413 5 1 45.251 36.066 20.513 
414 5 1 45.366 38.457 20.594 
415 5 1 45.094 40.714 20.433 
416 5 1 44.921 43.008 19.749 
417 5 1  5.064 44.033 20.323 
418 5 1  7.314 45.150 20.807 
419 5 1  9.189 46.703 21.393 
420 5 1 10.808 48.596 22.027 
421 5 1 12.241  0.229 22.686 
422 5 1 13.774  2.056 23.472 
423 5 1 14.443  4.142 22.352 
424 5 1 16.885  4.994 21.825 
425 5 1 19.241  6.201 21.605 
426 5 1 21.189  7.613 22.382 
427 5 1 23.118  8.693 23.595 
428 5 1 23.721 11.064 24.332 
429 5 1 24.335 13.323 25.362 
430 5 1 24.126 15.597 25.948 
431 5 1 24.128 17.816 26.733 
432 5 1 25.540 19.281 25.530 
433 5 1 26.054 20.721 23.418 
434 5 1 27.093 21.242 21.376 
435 5 1 26.446 19.675 19.529 
436 5 1 25.855 18.130 17.531 
437 5 1 25.037 16.472 15.845 
438 5 1 23.941 14.591 14.299 
439 5 1 23.024 12.347 13.458 
440 5 1 22.295 10.093 12.465 
441 6 1  7.890 43.702 39.423 
442 6 1  8.565 45.456 41.230 
443 6 1  9.103 44.846 43.693 
444 6 1 10.235 44.742 45.985 
445 6 1 11.655 44.242 47.700 
446 6 1 13.865 43.032 48.251 
447 6 1 15.020 41.041 48.963 
448 6 1 16.213 39.137 49.249 
449 6 1 15.900 37.281 47.828 
450 6 1 14.978 35.012 47.265 
451 6 1 12.736 34.044 48.084 
452 6 1 10.300 33.899 48.566 
453 6 1  7.920 34.685 49.026 
454 6 1  5.369 35.196 49.510 
455 6 1  3.315 34.857 48.022 
456 6 1 44.699 34.045 46.091 
457 6 1 44.906 32.734 43.949 
458 6 1 45.350 31.330 41.830 
459 6 1 46.065 29.437 40.415 
460 6 1  4.682 27.202 39.432 
461 6 1  5.541 24.742 39.275 
462 6 1  6.820 24.553 37.412 
463 6 1  5.576 23.733 35.308 
464 6 1  3.995 23.136 33.212 
465 6 1  3.895 24.835 31.254 
466 6 1 44.364 24.551 29.329 
467 6 1 44.128 25.535 26.965 
468 6 1 43.504 26.547 24.760 
469 6 1 42.695 28.411 23.502 
470 6 1 41.688 30.761 23.472 
471 6 1 41.021 33.147 23.026 
472 6 1 40.633 35.468 22.187 
473 6 1 40.113 37.626 20.916 
474 6 1 40.265 39.069 19.101 
475 6 1 41.618 40.061 17.180 
476 6 1 43.318 40.975 15.452 
477 6 1 45.736 40.236 15.264 
478 6 1  5.513 41.631 14.335 
479 6 1  6.718 41.748 12.056 
480 6 1  7.524 41.236  9.807 
481 6 1  7.543 40.037  7.534 
482 6 1  7.629 38.549  5.485 
483 6 1  7.350 37.205  3.339 
484 6 1  7.630 36.232  1.323 
485 6 1  8.900 35.208 -0.677 
486 6 1  9.850 33.697 -2.482 
487 6 1 12.104 33.652 -3.752 
488 6 1 14.457 33.741 52.568 
489 6 1 17.013 33.857 52.471 
490 6 1 19.595 33.979 52.300 
491 6 1 22.104 34.073 52.019 
492 6 1 24.732 34.326 51.667 
493 6 1 27.386 34.733 51.272 
494 6 1 28.667 34.388 49.012 
495 6 1 28.980 34.358 46.601 
496 6 1 27.419 36.215 45.453 
497 6 1 25.779 37.780 45.973 
498 6 1 24.081 39.142 47.473 
499 6 1 22.346 40.466 48.856 
500 6 1 20.393 41.338 50.316 
501 6 1 18.164 42.293 51.335 
502 6 1 17.735 44.563 52.619 
503 6 1 17.733 45.086 -1.927 
504 6 1 17.596 47.343 -0.591 
505 6 1 17.781 47.999  1.899 
506 6 1 18.751 48.113  3.926 
507 6 1 19.609 48.765  5.964 
508 6 1 19.244 48.524  8.268 
509 6 1 19.410 48.259 10.478 
510 6 1 20.789 48.242 12.621 
511 6 1 22.365 47.726 14.726 
512 6 1 23.710 47.277 16.832 
513 6 1 25.563 48.663 18.219 
514 6 1 27.365 -0.282 19.389 
515 6 1 28.400 -0.402 21.690 
516 6 1 29.502  0.111 23.949 
517 6 1 29.770  1.065 26.049 
518 6 1 29.125  2.787 27.926 
519 7 1 27.597 35.068 21.882 
520 7 1 26.537 33.592 23.719 
521 7 1 25.416 32.210 25.514 
522 7 1 25.225 30.343 26.904 
523 7 1 27.125 29.788 28.628 
524 7 1 27.144 27.695 30.276 
525 7 1 29.159 26.946 31.797 
526 7 1 31.256 25.915 32.783 
527 7 1 33.541 25.653 32.935 
528 7 1 35.626 25.479 33.950 
529 7 1 37.427 24.539 35.515 
530 7 1 39.070 23.374 37.225 
531 7 1 38.474 22.747 39.608 
532 7 1 37.989 22.025 42.080 
533 7 1 36.574 21.839 43.903 
534 7 1 34.245 22.219 45.037 
535 7 1 31.951 22.229 46.047 
536 7 1 30.473 21.872 47.901 
537 7 1 31.771 22.420 50.069 
538 7 1 33.247 22.970 52.141 
539 7 1 34.837 23.405 -3.158 
540 7 1 36.465 23.836 -1.190 
541 7 1 38.042 22.112 -0.145 
542 7 1 39.340 20.200  0.680 
543 7 1 39.948 19.628  3.134 
544 7 1 38.282 18.848  4.863 
545 7 1 36.602 19.239  6.483 
546 7 1 34.427 19.909  6.940 
547 7 1 31.909 19.992  6.855 
548 7 1 29.388 20.450  6.584 
549 7 1 26.822 20.708  6.256 
550 7 1 25.423 22.132  4.461 
551 7 1 24.111 23.223  2.414 
552 7 1 24.178 21.990  0.594 
553 7 1 24.481 21.103 -1.578 
554 7 1 23.875 19.565 -3.182 
555 7 1 24.737 17.454 -3.888 
556 7 1 26.507 15.568 52.903 
557 7 1 28.962 15.801 52.229 
558 7 1 30.774 17.328 -4.174 
559 7 1 32.351 18.605 -3.107 
560 7 1 33.428 19.137 -0.827 
561 7 1 33.720 17.352  1.066 
562 7 1 33.768 15.606  2.986 
563 7 1 35.507 13.726  3.478 
564 7 1 36.813 11.987  2.826 
565 7 1 37.111  9.931  1.809 
566 7 1 37.075  7.396  1.257 
567 7 1 36.013  5.132  2.150 
568 7 1 35.062  3.036  3.105 
569 7 1 33.279  1.813  4.192 
570 7 1 30.894  1.567  3.221 
571 7 1 29.021  0.017  2.735 
572 7 1 28.202 48.727  1.564 
573 7 1 27.854 47.831 -0.846 
574 7 1 27.498 47.551 -3.383 
575 7 1 27.634 47.508 51.225 
576 7 1 27.094 47.588 48.988 
577 7 1 25.518 48.003 46.958 
578 7 1 24.066 47.486 44.874 
579 7 1 22.792 47.005 42.721 
580 7 1 20.493 45.962 42.387 
581 7 1 18.624 45.452 40.790 
582 7 1 17.416 44.272 39.098 
583 7 1 15.223 42.939 39.158 
584 7 1 13.051 41.502 38.933 
585 7 1 10.850 40.268 38.164 
586 7 1 10.004 39.493 36.033 
587 7 1  8.538 38.857 33.943 
588 7 1  7.176 40.501 33.023 
589 7 1  6.292 42.849 32.666 
590 7 1  5.846 45.365 32.310 
591 7 1  5.369 47.850 32.224 
592 7 1  5.289 -0.421 31.316 
593 7 1  5.645  1.413 29.440 
594 7 1  5.863  3.212 27.606 
595 7 1  6.102  5.109 25.969 
596 7 1  5.991  6.939 24.230 
597 8 1 31.244 23.740 23.527 
598 8 1 31.995 26.002 22.733 
599 8 1 33.081 28.222 21.964 
600 8 1 34.812 29.585 21.423 
601 8 1 37.197 30.415 21.227 
602 8 1 38.979 29.774 19.702 
603 8 1 41.319 30.611 19.173 
604 8 1 43.671 31.161 18.296 
605 8 1 46.142 31.537 17.684 
606 8 1  6.464 32.072 17.448 
607 8 1  7.409 32.198 19.610 
608 8 1  8.143 31.975 21.845 
609 8 1  9.109 30.765 23.952 
610 8 1 10.372 29.867 26.004 
611 8 1 11.933 28.840 27.680 
612 8 1 13.218 27.767 29.637 
613 8 1 14.273 26.451 31.628 
614 8 1 15.804 25.352 33.182 
615 8 1 17.901 24.428 34.263 
616 8 1 20.059 23.593 35.411 
617 8 1 22.310 23.154 36.572 
618 8 1 24.464 22.126 37.515 
619 8 1 26.046 21.092 38.984 
620 8 1 27.735 19.932 40.206 
621 8 1 29.820 20.152 41.256 
622 8 1 32.099 20.316 41.734 
623 8 1 33.087 20.989 39.641 
624 8 1 32.887 21.833 37.252 
625 8 1 30.624 22.159 36.080 
626 8 1 28.399 23.027 34.984 
627 8 1 27.209 22.499 32.713 
628 8 1 26.848 21.437 30.541 
629 8 1 28.322 22.153 28.590 
630 8 1 29.450 23.674 27.431 
631 8 1 30.602 26.034 27.450 
632 8 1 31.101 28.237 26.689 
633 8 1 30.894 30.431 25.233 
634 8 1 31.615 32.584 24.425 
635 8 1 32.914 34.067 23.321 
636 8 1 33.684 35.700 21.802 
637 8 1 33.743 37.848 20.318 
638 8 1 34.469 40.011 20.090 
639 8 1 33.588 42.168 21.278 
640 8 1 31.886 43.473 21.878 
641 8 1 30.019 44.157 23.336 
642 8 1 28.217 44.610 24.697 
643 8 1 25.754 44.129 25.404 
644 8 1 23.372 43.157 25.786 
645 8 1 21.264 43.338 24.253 
646 8 1 19.601 43.036 22.371 
647 8 1 17.936 42.706 20.460 
648 8 1 16.290 42.501 18.450 
649 8 1 14.946 42.173 16.241 
650 8 1 13.072 40.607 15.682 
651 8 1 12.064 39.749 13.443 
652 8 1 10.105 38.156 13.168 
653 8 1  7.971 36.571 13.020 
654 8 1  5.864 35.988 13.714 
655 8 1  3.798 35.506 15.218 
656 8 1 43.711 35.050 16.145 
657 8 1 41.341 35.129 17.144 
658 8 1 38.894 34.517 17.713 
659 8 1 36.490 34.260 17.996 
660 8 1 34.524 34.874 16.986 
661 8 1 32.649 35.578 15.469 
662 8 1 30.395 36.544 14.710 
663 8 1 30.019 37.964 12.610 
664 8 1 30.563 39.170 10.688 
665 8 1 31.216 37.999  8.536 
666 8 1 31.311 36.484  6.754 
667 8 1 30.351 35.376  5.039 
668 8 1 28.843 35.663  3.256 
669 8 1 26.739 36.345  2.087 
670 8 1 24.794 36.133  0.899 
671 8 1 22.754 34.660  0.126 
672 8 1 20.565 33.437 -0.395 
673 8 1 18.085 32.631 -0.295 
674 8 1 15.657 32.040 -0.036 
675 9 1  7.758  0.214 45.298 
676 9 1  6.275 -0.732 47.233 
677 9 1  4.925 48.410 48.985 
678 9 1  4.117 47.001 51.033 
679 9 1 45.577 46.062 53.262 
680 9 1 44.435 43.831 -3.289 
681 9 1 43.405 41.899 -4.035 
682 9 1 41.364 41.518 52.181 
683 9 1 39.213 42.185 51.940 
684 9 1 38.028 43.944 -3.804 
685 9 1 36.821 45.972 -2.803 
686 9 1 34.993 47.345 -4.082 
687 9 1 33.539 47.387 51.346 
688 9 1 32.649 46.924 48.922 
689 9 1 31.469 46.509 46.643 
690 9 1 30.197 46.163 44.544 
691 9 1 28.740 47.097 42.876 
692 9 1 29.183 48.934 41.115 
693 9 1 29.852  0.480 39.478 
694 9 1 31.384  1.812 38.360 
695 9 1 33.740  2.139 37.496 
696 9 1 36.088  2.893 36.899 
697 9 1 38.463  3.674 36.289 
698 9 1 40.759  4.486 35.331 
699 9 1 43.113  4.897 34.306 
700 9 1 45.308  5.567 33.149 
701 9 1  5.059  6.457 31.698 
702 9 1  6.883  7.391 30.187 
703 9 1  8.220  8.471 28.453 
704 9 1  8.825  9.745 26.319 
705 9 1  9.851  9.928 24.236 
706 9 1 11.564  9.126 22.513 
707 9 1 11.671  7.342 20.689 
708 9 1 12.083  5.603 18.809 
709 9 1 12.647  3.933 16.895 
710 9 1 14.783  4.494 15.899 
711 9 1 16.895  5.544 15.755 
712 9 1 19.188  6.280 16.616 
713 9 1 21.638  6.555 17.368 
714 9 1 24.157  6.720 18.040 
715 9 1 25.717  8.050 19.714 
716 9 1 27.180  9.206 21.439 
717 9 1 28.629 10.188 23.345 
718 9 1 29.674 11.982 24.529 
719 9 1 29.359 14.029 25.388 
720 9 1 29.424 15.452 27.085 
721 9 1 29.399 16.983 28.694 
722 9 1 27.312 16.451 30.135 
723 9 1 25.261 15.771 31.253 
724 9 1 23.315 14.091 31.710 
725 9 1 21.973 12.791 29.852 
726 9 1 20.685 11.382 28.134 
727 9 1 19.381 10.046 26.417 
728 9 1 17.791  8.476 25.138 
729 9 1 17.092  6.728 26.588 
730 9 1 16.972  4.358 27.521 
731 9 1 16.854  1.816 27.034 
732 9 1 16.041 -0.294 26.581 
733 9 1 14.113 48.405 26.513 
734 9 1 12.102 46.834 26.438 
735 9 1 10.459 46.438 28.337 
736 9 1  9.444 46.244 30.425 
737 9 1  9.576 48.420 31.885 
738 9 1  9.856 -0.034 33.633 
739 9 1  9.916 -1.044 35.776 
740 9 1  7.430 48.632 36.219 
741 9 1  5.117 48.431 37.051 
742 9 1  4.594 47.546 39.443 
743 9 1  4.688 46.840 41.964 
744 9 1  4.859 45.819 44.342 
745 9 1  5.283 44.604 46.601 
746 9 1  5.491 43.278 48.802 
747 9 1  7.463 43.644 50.485 
748 9 1  9.741 43.674 51.884 
749 9 1 12.286 43.487 52.459 
750 9 1 13.426 42.214 -2.779 
751 9 1 14.147 43.059 -0.471 
752 9 1 14.692 43.843  1.891 
753 10 1 31.922 43.729  7.211 
754 10 1 33.517 41.924  6.281 
755 10 1 35.034 40.086  5.377 
756 10 1 36.892 38.813  5.122 
757 10 1 38.605 37.631  4.154 
758 10 1 39.851 35.965  2.537 
759 10 1 40.815 34.081  1.101 
760 10 1 41.791 32.218 -0.423 
761 10 1 42.945 30.522 -2.012 
762 10 1 44.646 29.053 -2.422 
763 10 1  4.827 28.016 -2.083 
764 10 1  5.029 26.634 -0.218 
765 10 1  3.783 27.445  1.828 
766 10 1 44.772 28.763  3.313 
767 10 1 43.828 30.829  4.334 
768 10 1 42.962 32.855  5.594 
769 10 1 41.386 34.421  7.023 
770 10 1 39.979 36.332  8.185 
771 10 1 38.343 38.209  8.967 
772 10 1 36.728 39.853  9.844 
773 10 1 35.352 41.717 11.054 
774 10 1 33.830 42.648 12.543 
775 10 1 32.209 42.021 14.404 
776 10 1 31.047 41.143 16.578 
777 10 1 29.909 40.492 18.815 
778 10 1 28.726 39.714 20.984 
779 10 1 27.084 39.295 22.553 
780 10 1 24.620 39.606 23.118 
781 10 1 22.686 38.295 21.945 
782 10 1 21.404 38.893 19.793 
783 10 1 20.250 39.169 17.537 
784 10 1 18.847 39.114 15.360 
785 10 1 17.354 39.257 13.249 
786 10 1 15.667 38.908 11.322 
787 10 1 14.012 37.828  9.608 
788 10 1 12.536 36.697  7.848 
789 10 1 11.209 35.501  6.078 
790 10 1 10.738 34.273  4.092 
791 10 1 11.159 31.737  4.386 
792 10 1 11.171 29.700  5.651 
793 10 1 11.059 27.800  7.017 
794 10 1 11.723 25.295  7.520 
795 10 1 11.576 23.074  8.241 
796 10 1 10.596 20.652  8.718 
797 10 1 10.143 19.999  6.554 
798 10 1  9.548 19.681  4.308 
799 10 1  7.775 19.186  2.420 
800 10 1  6.097 19.058  0.554 
801 10 1  4.265 17.149  0.466 
802 10 1 44.455 15.423  0.647 
803 10 1 42.491 15.022  2.230 
804 10 1 40.729 14.566  4.052 
805 10 1 39.370 14.356  6.252 
806 10 1 38.314 14.137  8.613 
807 10 1 36.909 12.030  9.344 
808 10 1 35.553  9.841  9.786 
809 10 1 34.988  8.329 11.796 
810 10 1 34.854  7.118 14.061 
811 10 1 35.056  5.897 16.317 
812 10 1 34.229  6.970 18.148 
813 10 1 34.150  8.700 19.979 
814 10 1 34.157 10.314 22.031 
815 10 1 34.567 11.740 24.198 
816 10 1 35.165 12.895 26.436 
817 10 1 35.407 14.464 28.467 
818 10 1 34.330 15.567 30.246 
819 10 1 32.183 16.026 31.576 
820 10 1 30.598 14.401 32.924 
821 10 1 28.934 12.732 33.999 
822 10 1 27.881 10.726 34.140 
823 10 1 27.282  8.538 34.367 
824 10 1 26.850  6.402 35.761 
825 10 1 26.609  4.041 36.060 
826 10 1 28.482  2.708 34.998 
827 10 1 30.444  1.984 33.556 
828 10 1 32.784  1.196 32.773 
829 10 1 35.004  1.509 32.044 
830 10 1 37.031  2.809 31.110 
831 11 1 44.114 14.179 36.878 
832 11 1  4.502 13.905 37.116 
833 11 1  6.771 13.780 36.357 
834 11 1  8.706 13.374 34.747 
835 11 1 10.723 12.680 33.246 
836 11 1 10.847 11.148 31.153 
837 11 1 11.459 11.901 28.732 
838 11 1 12.204 12.955 26.440 
839 11 1 13.114 14.209 24.424 
840 11 1 13.776 15.490 22.303 
841 11 1 13.979 14.576 19.836 
842 11 1 13.131 13.688 17.887 
843 11 1 11.630 13.503 15.774 
844 11 1  9.070 13.951 15.543 
845 11 1  7.523 13.555 13.590 
846 11 1  6.311 11.948 12.492 
847 11 1  5.197  9.649 11.980 
848 11 1  3.933  9.019 13.757 
849 11 1 43.646  8.412 13.441 
850 11 1 41.541  7.612 12.591 
851 11 1 40.252  6.300 10.873 
852 11 1 39.475  4.244  9.855 
853 11 1 41.085  2.213  9.274 
854 11 1 43.126  1.254  8.469 
855 11 1 45.069  1.943  9.951 
856 11 1  5.379  2.499  9.274 
857 11 1  7.545  1.948  8.427 
858 11 1  9.264  0.727  9.707 
859 11 1 11.089  0.444 11.393 
860 11 1 12.138 -0.051 13.361 
861 11 1 12.491 -0.464 15.817 
862 11 1 13.677 49.619 17.873 
863 11 1 15.441 49.299 19.710 
864 11 1 16.922  0.630 20.869 
865 11 1 18.893  0.575 22.531 
866 11 1 20.776  0.118 24.105 
867 11 1 21.772  1.883 25.127 
868 11 1 21.725  3.847 26.747 
869 11 1 21.483  5.939 28.197 
870 11 1 21.978  7.670 29.917 
871 11 1 22.090  6.752 32.399 
872 11 1 22.231  5.766 34.851 
873 11 1 22.538  5.463 37.390 
874 11 1 22.819  5.445 39.979 
875 11 1 24.870  6.576 41.100 
876 11 1 27.110  5.409 41.889 
877 11 1 29.297  4.323 42.548 
878 11 1 31.459  3.184 43.162 
879 11 1 33.849  2.212 43.461 
880 11 1 35.650  1.088 42.604 
881 11 1 37.427  0.350 40.949 
882 11 1 39.532  0.357 39.481 
883 11 1 41.623  0.510 38.019 
884 11 1 43.681  0.261 36.457 
885 11 1 45.655  1.659 35.515 
886 11 1  5.666  2.644 34.595 
887 11 1  7.750  3.673 33.453 
888 11 1  9.705  4.971 32.449 
889 11 1 11.625  6.641 31.676 
890 11 1 13.381  6.249 29.799 
891 11 1 12.451  6.168 27.773 
892 11 1 11.167  5.243 25.806 
893 11 1  9.912  4.397 23.776 
894 11 1  8.835  3.154 21.761 
895 11 1  8.196  1.796 19.662 
896 11 1  7.732  0.523 17.582 
897 11 1  7.145 -0.731 15.389 
898 11 1  6.308 48.530 13.202 
899 11 1  5.165 47.504 11.049 
900 11 1  3.600 46.688  9.251 
901 11 1  3.709 44.748  7.643 
902 11 1  4.193 43.188  5.931 
903 11 1  4.762 42.143  3.617 
904 11 1  5.494 41.166  1.322 
905 11 1  6.052 40.417 -1.010 
906 11 1  6.103 39.731 -3.523 
907 11 1  5.654 38.934 51.265 
908 11 1  3.836 39.221 49.483 
909 12 1 12.663 27.683 22.163 
910 12 1 10.743 27.547 20.474 
911 12 1  8.942 27.385 18.687 
912 12 1  7.081 27.297 16.964 
913 12 1  4.951 27.486 15.445 
914 12 1 44.865 27.907 14.238 
915 12 1 43.001 29.143 13.554 
916 12 1 40.956 28.649 14.479 
917 12 1 38.855 28.143 15.177 
918 12 1 36.568 28.823 16.260 
919 12 1 34.231 29.680 16.872 
920 12 1 32.023 30.800 17.347 
921 12 1 30.022 31.699 15.900 
922 12 1 28.174 32.731 14.384 
923 12 1 25.855 33.025 13.552 
924 12 1 23.242 33.233 12.976 
925 12 1 21.955 35.172 13.638 
926 12 1 20.993 35.793 11.499 
927 12 1 19.758 36.132  9.597 
928 12 1 17.691 34.738  9.838 
929 12 1 15.943 32.962  9.961 
930 12 1 14.364 30.997 10.002 
931 12 1 13.623 28.965 10.861 
932 12 1 13.654 26.974 12.531 
933 12 1 13.810 24.797 12.980 
934 12 1 14.376 22.389 12.435 
935 12 1 14.642 19.883 11.548 
936 12 1 14.305 17.729 10.156 
937 12 1 13.341 16.461  8.336 
938 12 1 11.720 15.884  6.352 
939 12 1 10.308 14.913  4.382 
940 12 1  8.623 13.870  2.821 
941 12 1  6.535 12.994  2.268 
942 12 1  4.285 12.011  2.901 
943 12 1 44.081 11.103  3.674 
944 12 1 41.882 10.085  4.681 
945 12 1 39.599  8.920  5.524 
946 12 1 37.397  7.801  6.103 
947 12 1 35.139  6.729  6.282 
948 12 1 32.705  5.868  6.275 
949 12 1 30.286  5.246  6.059 
950 12 1 27.914  4.689  5.517 
951 12 1 25.889  3.555  5.330 
952 12 1 24.697  1.533  6.170 
953 12 1 23.486  0.347  7.653 
954 12 1 24.559 -0.854  9.399 
955 12 1 25.512 48.533 11.188 
956 12 1 27.018 47.912 12.801 
957 12 1 28.698 46.668 13.914 
958 12 1 29.910 45.689 16.075 
959 12 1 28.652 45.053 18.232 
960 12 1 27.068 44.242 19.756 
961 12 1 24.797 43.165 20.291 
962 12 1 22.586 43.176 18.908 
963 12 1 21.355 43.143 16.992 
964 12 1 21.003 43.673 14.517 
965 12 1 19.664 43.773 12.659 
966 12 1 17.698 43.247 11.113 
967 12 1 15.766 42.869  9.493 
968 12 1 13.795 42.452  7.968 
969 12 1 11.705 42.006  6.585 
970 12 1 10.725 41.717  4.542 
971 12 1  9.724 41.632  2.391 
972 12 1  9.383 43.913  1.242 
973 12 1  9.235 45.939 -0.421 
974 12 1  6.986 47.099 -1.210 
975 12 1  7.038 49.181 -2.916 
976 12 1  6.902  0.824 52.672 
977 12 1  6.828  2.998 51.246 
978 12 1  6.248  5.336 50.239 
979 12 1  5.661  7.637 50.154 
980 12 1  4.943  9.948 51.291 
981 12 1  4.446 12.256 51.417 
982 12 1  4.905 14.498 51.100 
983 12 1  5.431 16.653 51.691 
984 12 1  4.910 18.893 52.944 
985 12 1  4.385 21.050 -3.190 
986 12 1  3.390 23.105 -3.425 