LAMMPS data file generated by aa2cg.

2000 atoms
1 atom types
1975 bonds
1 bond types
1950 angles
1 angle types
1925 dihedrals
1 dihedral types

 0.000 50.822 xlo xhi
 0.000 40.122 ylo yhi
 0.000 60.262 zlo zhi

Masses

1 24.022

Atoms # molecular

1 1 1 13.974 16.694  7.758 
2 1 1 33.328 18.281 16.516 
3 2 1  3.110 13.044 26.863 
4 2 1 18.253 32.982  0.718 
5 3 1 26.596 36.914 -3.678 
6 3 1 15.428  8.023 24.848 
7 4 1 39.397  9.985 30.182 
8 4 1  4.795 40.800 15.575 
9 5 1 45.621 23.647 51.157 
10 5 1  9.955 21.559 41.970 
11 6 1  9.281 33.297 25.096 
12 6 1  6.878 28.834  7.885 
13 7 1  8.862 20.539  6.189 
14 7 1  7.349 13.445 31.865 
15 8 1 48.294 27.329 15.741 
16 8 1 47.645 35.534 33.876 
17 9 1 40.600 10.126 16.163 
18 9 1  0.661 36.629 -4.549 
19 10 1 38.103 31.066 26.942 
20 10 1  2.335 24.963 31.213 
21 11 1 41.149 39.274 28.902 
22 11 1  6.336  8.297  6.204 
23 12 1 40.184  5.400 53.827 
24 12 1 15.481 36.512 23.882 
25 13 1  7.668 14.176 51.114 
26 13 1  7.049 24.312  4.737 
27 14 1  4.718 22.582 -4.538 
28 14 1 13.183 21.787  0.327 
29 15 1 29.516 34.994 33.106 
30 15 1 18.147 41.688  3.849 
31 16 1 14.789 33.367 13.869 
32 16 1 37.306 25.451 -1.062 
33 17 1 33.129 15.143  7.219 
34 17 1 41.733  9.555 42.794 
35 18 1 33.733 29.802 26.801 
36 18 1 36.635 18.261  5.889 
37 19 1 41.598 11.387 10.137 
38 19 1 29.454 23.341 53.912 
39 20 1  5.993 26.054 -1.091 
40 20 1 24.884 40.373 23.276 
41 21 1 13.663 12.697 38.240 
42 21 1 10.007 32.847  1.730 
43 22 1 27.999 32.905 23.169 
44 22 1  5.509 41.043  3.218 
45 23 1 -0.286 37.282 45.247 
46 23 1 16.009 41.284 23.890 
47 24 1 11.815 24.622 19.279 
48 24 1 44.565 14.823 33.988 
49 25 1  3.316 27.839 17.975 
50 25 1 33.592 38.198  5.078 
51 1 1 15.277 17.784  5.836 
52 1 1 16.761 19.129  4.084 
53 1 1 18.135 20.404  2.288 
54 1 1 19.813 21.779  3.313 
55 1 1 21.189 23.124  5.110 
56 1 1 22.508 23.930  7.131 
57 1 1 21.775 24.835  9.388 
58 1 1 21.147 25.650 11.816 
59 1 1 20.142 26.760 13.847 
60 1 1 18.738 27.477 15.866 
61 1 1 19.019 27.681 18.392 
62 1 1 17.732 25.982 19.337 
63 1 1 17.138 23.661 19.489 
64 1 1 18.240 22.131 17.668 
65 1 1 19.189 21.132 15.663 
66 1 1 20.522 20.181 13.726 
67 1 1 22.107 19.058 11.996 
68 1 1 23.416 17.569 10.296 
69 1 1 24.585 16.072  8.548 
70 1 1 25.823 14.736  6.757 
71 1 1 27.236 13.620  4.895 
72 1 1 28.572 11.414  4.904 
73 1 1 29.946  9.307  4.544 
74 1 1 30.560  7.235  5.255 
75 1 1 30.616  5.422  7.126 
76 1 1 31.362 43.934  8.750 
77 1 1 31.926 42.245 10.192 
78 1 1 31.452 40.255 11.052 
79 1 1 30.627 38.149 11.653 
80 1 1 29.769 36.454 13.299 
81 1 1 28.361 36.976 15.427 
82 1 1 28.839 37.001 17.897 
83 1 1 29.275 37.184 20.382 
84 1 1 30.143 36.725 22.853 
85 1 1 31.449 36.071 25.023 
86 1 1 32.585 35.425 27.163 
87 1 1 34.174 34.814 28.813 
88 1 1 36.497 34.923 29.828 
89 1 1 38.068 34.213 31.344 
90 1 1 38.985 32.924 33.284 
91 1 1 39.958 31.450 35.139 
92 1 1 41.141 29.670 36.587 
93 1 1 42.367 27.692 37.735 
94 1 1 41.924 25.027 37.729 
95 1 1 41.280 22.535 37.531 
96 1 1 39.977 20.670 37.026 
97 1 1 37.644 19.996 36.175 
98 1 1 35.336 19.199 35.265 
99 1 1 33.149 18.328 34.163 
100 1 1 31.115 16.895 33.089 
101 1 1 30.743 16.567 30.578 
102 1 1 29.945 16.175 28.167 
103 1 1 28.620 16.207 25.914 
104 1 1 26.988 14.488 25.926 
105 1 1 25.418 13.223 27.123 
106 1 1 25.858 12.836 29.387 
107 1 1 25.955 12.071 31.547 
108 1 1 24.893 11.587 33.784 
109 1 1 23.699 11.045 36.023 
110 1 1 22.955 11.815 38.117 
111 1 1 22.862 13.917 39.820 
112 1 1 23.435 15.769 41.537 
113 1 1 25.309 17.523 41.012 
114 1 1 27.056 19.318 41.211 
115 1 1 28.724 21.204 41.183 
116 1 1 30.369 23.127 40.541 
117 1 1 31.663 25.104 39.564 
118 1 1 32.845 27.248 38.896 
119 1 1 33.975 28.472 37.270 
120 1 1 32.813 27.915 34.941 
121 1 1 31.703 27.058 32.750 
122 1 1 30.457 26.678 30.481 
123 1 1 31.745 25.947 28.278 
124 1 1 30.598 25.629 25.920 
125 1 1 31.103 24.430 23.753 
126 1 1 31.683 23.535 21.423 
127 1 1 32.417 21.978 19.851 
128 1 1 32.787 19.910 18.377 
129 2 1  0.764 13.174 26.679 
130 2 1 -0.259 12.934 29.030 
131 2 1 -1.322 12.305 31.363 
132 2 1 49.050 11.189 33.672 
133 2 1 49.366  9.661 35.765 
134 2 1 -0.796  8.013 37.646 
135 2 1  0.400  5.772 37.381 
136 2 1  1.498 44.323 36.047 
137 2 1  2.398 43.260 33.908 
138 2 1  2.876  4.282 31.674 
139 2 1  4.235  5.356 29.989 
140 2 1  6.653 44.355 29.676 
141 2 1  8.427 42.705 29.649 
142 2 1  9.517 40.447 30.435 
143 2 1 10.007 38.081 31.011 
144 2 1 11.278 36.130 31.480 
145 2 1 13.435 34.717 31.598 
146 2 1 15.519 33.215 31.555 
147 2 1 16.986 31.525 30.964 
148 2 1 17.898 29.393 30.550 
149 2 1 17.567 27.090 29.995 
150 2 1 16.517 24.828 29.247 
151 2 1 16.260 22.913 27.892 
152 2 1 17.459 21.229 26.300 
153 2 1 19.205 19.523 25.482 
154 2 1 20.133 17.536 24.934 
155 2 1 21.049 15.520 24.233 
156 2 1 23.058 14.314 23.380 
157 2 1 23.902 13.875 20.914 
158 2 1 26.341 13.947 20.038 
159 2 1 28.118 15.220 19.402 
160 2 1 29.795 16.806 19.884 
161 2 1 29.664 18.290 22.104 
162 2 1 29.458 20.291 23.848 
163 2 1 29.909 20.476 26.371 
164 2 1 30.469 20.910 28.888 
165 2 1 31.286 21.513 31.318 
166 2 1 31.908 22.309 33.650 
167 2 1 33.542 23.314 35.085 
168 2 1 35.972 23.669 35.869 
169 2 1 37.439 25.557 34.806 
170 2 1 37.461 27.318 33.475 
171 2 1 37.310 26.954 30.947 
172 2 1 36.043 25.313 29.570 
173 2 1 35.083 23.572 27.969 
174 2 1 34.505 21.583 26.445 
175 2 1 33.989 19.701 24.660 
176 2 1 34.214 17.840 22.887 
177 2 1 34.321 16.260 20.888 
178 2 1 34.075 14.543 19.049 
179 2 1 35.380 14.520 16.864 
180 2 1 36.307 14.442 14.461 
181 2 1 36.916 14.324 11.954 
182 2 1 37.465 14.012  9.500 
183 2 1 38.037 13.345  7.116 
184 2 1 38.314 12.523  4.701 
185 2 1 38.437 11.556  2.299 
186 2 1 38.495 10.593 -0.053 
187 2 1 38.744  9.650 -2.424 
188 2 1 39.391  9.578 -4.612 
189 2 1 39.533 10.814 53.780 
190 2 1 38.577 12.637 52.231 
191 2 1 37.479 13.494 50.307 
192 2 1 36.350 13.903 48.028 
193 2 1 35.203 14.593 45.784 
194 2 1 34.573 16.302 44.284 
195 2 1 32.855 18.043 45.031 
196 2 1 31.280 19.878 45.780 
197 2 1 29.577 21.570 46.613 
198 2 1 27.732 22.669 48.019 
199 2 1 26.146 23.139 49.874 
200 2 1 25.893 25.413 51.221 
201 2 1 26.035 27.669 52.592 
202 2 1 25.737 28.346 55.189 
203 2 1 24.961 28.812 -2.621 
204 2 1 24.002 28.988 -0.218 
205 2 1 21.429 29.104  0.348 
206 2 1 20.024 31.136  0.857 
207 3 1 28.849 36.390 -4.679 
208 3 1 31.071 35.846 54.491 
209 3 1 33.290 36.472 -4.799 
210 3 1 35.510 37.267 -3.781 
211 3 1 37.750 37.839 -2.830 
212 3 1 40.132 38.107 -1.907 
213 3 1 41.195 39.968 -2.536 
214 3 1 41.560 42.577 -2.670 
215 3 1 42.385 45.049 -2.329 
216 3 1 43.366  7.101 -2.962 
217 3 1 44.617  8.767 -4.535 
218 3 1 44.779  8.316 53.220 
219 3 1 44.870  7.386 50.787 
220 3 1 46.004  6.481 48.955 
221 3 1 48.023  6.304 47.287 
222 3 1 50.006  5.108 46.918 
223 3 1  0.715 43.283 47.204 
224 3 1  2.409 41.254 47.493 
225 3 1  4.627 40.075 47.672 
226 3 1  6.882 38.898 47.439 
227 3 1  7.297 36.521 48.209 
228 3 1  9.403 34.958 48.100 
229 3 1  8.920 32.643 48.163 
230 3 1  7.471 30.874 48.351 
231 3 1  5.527 29.468 49.247 
232 3 1  3.297 29.878 50.544 
233 3 1  1.138 30.454 51.594 
234 3 1 -0.656 31.891 52.672 
235 3 1 48.490 33.778 53.333 
236 3 1 46.466 35.289 53.472 
237 3 1 44.466 36.951 53.569 
238 3 1 42.317 38.239 53.350 
239 3 1 40.002 39.363 53.181 
240 3 1 37.901 40.752 53.392 
241 3 1 35.981 42.144 53.065 
242 3 1 34.505 43.817 51.811 
243 3 1 32.949  5.016 50.189 
244 3 1 31.461  6.543 48.780 
245 3 1 29.866  7.863 47.206 
246 3 1 28.199  9.226 45.717 
247 3 1 26.597 10.580 44.273 
248 3 1 27.178 11.855 42.152 
249 3 1 27.282 13.005 39.859 
250 3 1 27.140 14.627 37.928 
251 3 1 26.803 15.751 35.598 
252 3 1 26.448 16.484 33.138 
253 3 1 25.951 17.422 30.738 
254 3 1 25.462 18.260 28.292 
255 3 1 24.805 18.739 25.802 
256 3 1 24.839 19.476 23.513 
257 3 1 25.716 20.608 21.406 
258 3 1 26.306 21.898 19.226 
259 3 1 28.010 23.731 18.610 
260 3 1 29.543 23.661 16.773 
261 3 1 30.655 23.332 14.847 
262 3 1 29.790 21.222 13.652 
263 3 1 28.621 19.257 12.626 
264 3 1 27.697 17.176 12.576 
265 3 1 25.995 17.274 14.469 
266 3 1 24.334 17.706 16.482 
267 3 1 22.557 18.552 18.182 
268 3 1 20.720 19.246 19.841 
269 3 1 20.979 21.117 21.322 
270 3 1 20.820 23.287 22.662 
271 3 1 20.350 25.076 24.491 
272 3 1 20.591 26.974 25.818 
273 3 1 22.074 28.229 27.001 
274 3 1 22.656 29.012 29.001 
275 3 1 22.041 29.397 31.509 
276 3 1 21.504 30.085 33.908 
277 3 1 20.878 32.270 33.883 
278 3 1 20.879 34.711 33.321 
279 3 1 20.235 37.166 32.857 
280 3 1 19.154 39.452 32.223 
281 3 1 18.328 41.766 31.558 
282 3 1 17.584 43.930 30.365 
283 3 1 16.990  5.681 28.635 
284 3 1 16.579  7.327 26.715 
285 4 1 39.845  7.430 30.291 
286 4 1 40.143  6.843 28.108 
287 4 1 39.480  7.065 25.614 
288 4 1 39.610  7.689 23.201 
289 4 1 39.140  7.623 20.974 
290 4 1 37.673  6.802 18.895 
291 4 1 36.310  7.852 17.304 
292 4 1 35.286  9.085 15.628 
293 4 1 34.212  9.804 13.568 
294 4 1 33.254 10.340 11.286 
295 4 1 33.699 10.447  9.086 
296 4 1 34.169 10.238  6.752 
297 4 1 33.930 10.941  4.549 
298 4 1 33.106 12.329  2.593 
299 4 1 31.832 12.928  0.662 
300 4 1 30.236 12.336 -1.285 
301 4 1 28.795 12.793 -3.175 
302 4 1 27.374 13.974 -4.915 
303 4 1 26.005 14.836 53.428 
304 4 1 23.815 16.291 53.446 
305 4 1 21.633 16.751 54.040 
306 4 1 19.426 16.137 -5.013 
307 4 1 17.395 14.667 54.644 
308 4 1 16.356 13.031 53.343 
309 4 1 16.058 10.961 51.813 
310 4 1 17.746  9.711 50.305 
311 4 1 19.257  8.739 48.523 
312 4 1 20.289  7.834 46.310 
313 4 1 20.730  5.401 45.400 
314 4 1 20.623 43.171 45.261 
315 4 1 20.037 40.831 46.272 
316 4 1 19.308 38.586 47.393 
317 4 1 18.721 36.179 48.337 
318 4 1 18.928 35.542 50.842 
319 4 1 19.385 35.240 53.294 
320 4 1 18.762 35.359 -4.724 
321 4 1 17.570 36.158 -2.782 
322 4 1 16.597 37.981 -1.150 
323 4 1 15.506 39.741  0.404 
324 4 1 14.357 41.449  1.984 
325 4 1 12.188 42.830  1.562 
326 4 1 10.206 44.537  1.096 
327 4 1  9.814  6.415  2.590 
328 4 1 10.405  8.541  3.295 
329 4 1 11.968 10.556  3.311 
330 4 1 13.365 12.638  3.135 
331 4 1 15.054 14.613  3.006 
332 4 1 15.366 16.230  1.022 
333 4 1 15.390 18.024 -0.790 
334 4 1 17.453 18.787 -2.230 
335 4 1 19.057 20.815 -2.107 
336 4 1 21.108 22.291 -1.567 
337 4 1 23.167 23.298 -0.716 
338 4 1 24.548 24.267  0.829 
339 4 1 25.444 24.928  3.036 
340 4 1 26.323 25.988  5.133 
341 4 1 27.437 26.708  7.355 
342 4 1 28.617 27.102  9.572 
343 4 1 27.507 27.032 11.903 
344 4 1 26.140 27.375 14.009 
345 4 1 24.132 27.698 15.758 
346 4 1 23.132 30.058 16.424 
347 4 1 22.140 32.172 17.644 
348 4 1 19.779 32.260 18.544 
349 4 1 18.853 31.771 20.843 
350 4 1 17.914 31.312 23.255 
351 4 1 17.354 32.965 25.125 
352 4 1 15.164 32.771 26.601 
353 4 1 13.012 32.430 27.814 
354 4 1 10.766 31.951 29.014 
355 4 1  8.598 31.572 30.538 
356 4 1  7.724 33.664 30.842 
357 4 1  6.395 35.709 29.874 
358 4 1  6.435 36.958 27.578 
359 4 1  6.462 38.168 25.283 
360 4 1  6.478 39.114 22.948 
361 4 1  6.305 40.019 20.519 
362 4 1  5.733 40.354 17.982 
363 5 1 46.512 23.932 53.487 
364 5 1 47.345 23.071 -4.754 
365 5 1 48.573 21.417 -3.249 
366 5 1 49.981 19.794 -1.826 
367 5 1 49.319 20.161  0.471 
368 5 1 47.878 20.825  2.126 
369 5 1 45.587 20.677  3.272 
370 5 1 43.283 20.411  4.441 
371 5 1 41.281 21.957  4.518 
372 5 1 39.560 21.354  3.107 
373 5 1 38.345 21.084  0.818 
374 5 1 37.024 20.890 -1.393 
375 5 1 35.846 20.648 -3.734 
376 5 1 34.671 20.829 -6.057 
377 5 1 33.495 21.407 51.896 
378 5 1 34.512 21.908 49.604 
379 5 1 35.239 22.197 47.200 
380 5 1 35.642 22.812 44.654 
381 5 1 35.661 23.014 42.078 
382 5 1 36.435 23.349 39.898 
383 5 1 37.594 25.617 39.526 
384 5 1 37.868 27.865 40.237 
385 5 1 37.514 29.889 41.761 
386 5 1 37.035 31.847 43.190 
387 5 1 36.574 33.954 44.560 
388 5 1 34.459 34.013 45.782 
389 5 1 32.478 34.489 46.756 
390 5 1 30.511 35.684 47.805 
391 5 1 28.734 37.322 46.975 
392 5 1 26.648 38.741 46.214 
393 5 1 25.235 40.210 47.690 
394 5 1 23.703 41.501 49.241 
395 5 1 22.170 41.622 50.921 
396 5 1 20.179 40.713 52.219 
397 5 1 18.794 40.416 54.040 
398 5 1 17.563 41.204 -4.525 
399 5 1 15.811 42.665 -3.501 
400 5 1 13.885 44.152 -2.532 
401 5 1 11.553 44.778 -3.584 
402 5 1  9.421  5.558 -4.845 
403 5 1  7.490  6.378 53.903 
404 5 1  5.044  6.919 54.417 
405 5 1  2.913  6.765 55.356 
406 5 1  0.767  6.389 -3.878 
407 5 1 -1.176  5.972 -2.627 
408 5 1 47.837  4.747 -1.293 
409 5 1 46.585  4.434  0.680 
410 5 1 45.736  5.141  3.000 
411 5 1 44.105  5.562  4.479 
412 5 1 42.625  5.549  6.263 
413 5 1 42.041  5.252  8.692 
414 5 1 41.325  4.641 11.159 
415 5 1 42.051  6.061 13.191 
416 5 1 43.342  7.054 15.099 
417 5 1 44.894  7.898 16.996 
418 5 1 46.244  9.294 18.916 
419 5 1 48.119 10.493 20.077 
420 5 1 49.108  9.466 22.092 
421 5 1 49.464  8.826 24.573 
422 5 1 -0.862  8.213 27.088 
423 5 1 -0.388  6.948 29.231 
424 5 1 49.297  6.452 31.473 
425 5 1 47.981  5.687 33.505 
426 5 1 46.778  4.955 35.593 
427 5 1 46.175 42.660 36.167 
428 5 1 44.960 40.757 35.715 
429 5 1 43.538 39.005 35.099 
430 5 1 43.177 36.697 36.143 
431 5 1 43.463 34.424 36.165 
432 5 1 44.526 32.288 34.985 
433 5 1 45.279 30.055 34.760 
434 5 1 46.469 28.058 35.039 
435 5 1 48.851 26.885 34.904 
436 5 1  0.461 26.112 35.078 
437 5 1  2.755 25.226 35.880 
438 5 1  4.896 24.011 36.714 
439 5 1  6.710 22.926 38.265 
440 5 1  8.535 22.071 39.899 
441 6 1 10.472 35.497 25.696 
442 6 1 12.011 37.468 26.279 
443 6 1 11.724 39.750 25.746 
444 6 1 11.216 41.695 24.080 
445 6 1 10.310 43.459 22.483 
446 6 1 10.064 43.383 19.876 
447 6 1  9.332  5.348 18.478 
448 6 1  8.632  5.535 16.026 
449 6 1  7.917  4.670 14.060 
450 6 1  7.807 42.858 12.305 
451 6 1  7.486 40.824 10.731 
452 6 1  6.915 38.689  9.357 
453 6 1  6.568 36.745  7.548 
454 6 1  6.293 34.946  5.734 
455 6 1  5.184 33.896  3.947 
456 6 1  2.859 32.851  4.366 
457 6 1  0.331 33.590  4.596 
458 6 1 48.752 34.325  4.531 
459 6 1 47.414 35.138  2.548 
460 6 1 47.108 35.442  0.348 
461 6 1 47.411 34.811 -2.037 
462 6 1 49.175 33.185 -2.740 
463 6 1  0.222 31.362 -3.371 
464 6 1  2.115 29.581 -3.499 
465 6 1  4.277 29.730 -4.840 
466 6 1  5.994 30.738 54.141 
467 6 1  7.167 32.653 52.738 
468 6 1  8.684 34.368 53.004 
469 6 1 10.155 36.292 53.643 
470 6 1  9.762 38.429 52.374 
471 6 1  8.874 40.529 51.267 
472 6 1  7.787 42.677 50.318 
473 6 1  6.375 44.731 49.673 
474 6 1  6.820  6.896 48.522 
475 6 1  8.588  8.320 49.505 
476 6 1 10.351  9.737 50.217 
477 6 1 11.745 12.001 50.444 
478 6 1 13.184 13.263 48.661 
479 6 1 15.298 14.493 47.667 
480 6 1 16.739 15.555 46.064 
481 6 1 17.878 16.001 43.724 
482 6 1 19.168 15.941 41.421 
483 6 1 18.834 14.412 39.366 
484 6 1 18.646 12.802 37.327 
485 6 1 17.484 13.456 35.169 
486 6 1 16.397 14.923 33.694 
487 6 1 15.286 17.224 33.065 
488 6 1 13.775 19.136 32.287 
489 6 1 12.167 20.890 31.246 
490 6 1 10.501 22.487 30.177 
491 6 1  8.623 24.137 29.553 
492 6 1  6.735 25.528 28.640 
493 6 1  4.863 27.095 27.786 
494 6 1  4.910 29.647 27.562 
495 6 1  5.140 32.122 27.282 
496 6 1  4.497 33.439 25.142 
497 6 1  3.852 34.797 23.007 
498 6 1  3.544 35.468 20.746 
499 6 1  3.762 36.155 18.548 
500 6 1  2.079 37.216 16.861 
501 6 1  0.564 38.147 15.018 
502 6 1 -1.119 39.242 13.435 
503 6 1 47.845 38.993 12.201 
504 6 1 45.787 37.835 11.308 
505 6 1 43.903 36.410 10.170 
506 6 1 42.539 35.757  8.395 
507 6 1 42.374 35.700  5.925 
508 6 1 42.554 35.017  3.437 
509 6 1 42.241 34.891  0.839 
510 6 1 43.180 32.773  0.047 
511 6 1 44.012 30.461  0.241 
512 6 1 46.163 30.198  1.144 
513 6 1 48.708 30.542  0.978 
514 6 1  0.385 29.922  0.741 
515 6 1  2.739 30.238  0.778 
516 6 1  4.850 30.197  1.669 
517 6 1  6.854 29.291  3.097 
518 6 1  6.694 28.527  5.536 
519 7 1  7.276 19.865  4.257 
520 7 1  5.487 17.985  4.003 
521 7 1  3.223 16.742  3.497 
522 7 1  0.848 15.750  2.834 
523 7 1 49.353 14.672  2.105 
524 7 1 47.854 15.287  0.113 
525 7 1 46.158 15.963 -1.746 
526 7 1 44.597 17.535 -2.487 
527 7 1 43.675 19.924 -2.451 
528 7 1 42.304 22.233 -2.447 
529 7 1 43.425 24.105 -1.663 
530 7 1 44.981 26.017 -1.998 
531 7 1 46.347 28.121 -2.338 
532 7 1 48.553 27.830 -3.408 
533 7 1 -0.383 26.824 -4.763 
534 7 1  1.682 26.276 -6.112 
535 7 1  4.031 26.270 53.076 
536 7 1  6.441 26.086 52.182 
537 7 1  8.323 24.779 51.706 
538 7 1  7.482 22.813 50.142 
539 7 1  5.450 21.936 50.902 
540 7 1  3.702 21.311 49.619 
541 7 1  2.431 19.490 48.148 
542 7 1  1.259 17.531 46.894 
543 7 1 -0.112 16.343 45.344 
544 7 1 -1.583 15.736 43.364 
545 7 1 48.661 15.281 41.171 
546 7 1 49.262 15.570 38.636 
547 7 1 48.899 15.942 36.112 
548 7 1 48.508 16.392 33.647 
549 7 1 47.870 16.694 31.192 
550 7 1 47.192 16.828 28.731 
551 7 1 46.974 17.268 26.197 
552 7 1 48.302 19.115 24.946 
553 7 1 47.626 20.019 22.682 
554 7 1 47.449 20.787 20.285 
555 7 1 47.817 21.506 17.807 
556 7 1 48.244 22.223 15.356 
557 7 1 48.597 23.138 12.963 
558 7 1 49.361 23.092 10.713 
559 7 1  1.155 22.917 10.599 
560 7 1  3.724 22.798 10.868 
561 7 1  6.211 22.614 11.037 
562 7 1  8.763 22.544 10.951 
563 7 1 11.376 22.277 10.909 
564 7 1 12.360 20.404 12.335 
565 7 1 14.295 18.927 11.608 
566 7 1 16.225 17.269 11.220 
567 7 1 18.080 15.644 10.675 
568 7 1 19.822 14.009  9.642 
569 7 1 21.624 12.337  8.610 
570 7 1 22.939 10.794  7.033 
571 7 1 24.228  9.370  5.387 
572 7 1 25.710  7.713  4.131 
573 7 1 27.176  5.664  3.736 
574 7 1 28.396 43.513  3.676 
575 7 1 30.339 42.203  3.157 
576 7 1 31.530 42.864  0.859 
577 7 1 32.857 44.847  0.922 
578 7 1 33.413  7.207  1.345 
579 7 1 33.259  8.732 -0.479 
580 7 1 32.764  9.127 -2.652 
581 7 1 31.345  9.049 -4.833 
582 7 1 29.954  8.828 53.250 
583 7 1 28.457  9.068 51.418 
584 7 1 26.769 10.279 49.945 
585 7 1 25.376 11.365 48.025 
586 7 1 23.780 12.146 46.290 
587 7 1 22.324 11.786 44.562 
588 7 1 20.385 11.153 43.491 
589 7 1 17.819 11.571 43.286 
590 7 1 15.312 12.147 42.987 
591 7 1 13.487 10.367 43.087 
592 7 1 11.313 11.080 42.475 
593 7 1  9.697 12.074 40.777 
594 7 1  8.420 13.232 38.871 
595 7 1  7.251 14.374 36.917 
596 7 1  7.426 13.990 34.395 
597 8 1 45.962 26.739 16.670 
598 8 1 43.610 26.028 17.421 
599 8 1 41.059 25.679 17.895 
600 8 1 38.482 25.572 18.300 
601 8 1 35.900 25.408 18.731 
602 8 1 33.937 25.795 17.077 
603 8 1 32.338 27.858 17.152 
604 8 1 29.722 27.867 17.354 
605 8 1 28.126 29.924 17.829 
606 8 1 26.843 32.046 18.367 
607 8 1 25.584 34.168 19.005 
608 8 1 24.213 36.496 19.305 
609 8 1 22.472 35.850 20.803 
610 8 1 21.555 35.118 22.886 
611 8 1 22.852 33.436 23.925 
612 8 1 23.784 31.040 23.844 
613 8 1 23.353 29.246 22.002 
614 8 1 23.346 27.231 20.451 
615 8 1 23.233 25.070 18.978 
616 8 1 22.814 23.994 16.910 
617 8 1 23.118 23.520 14.591 
618 8 1 24.509 22.627 12.548 
619 8 1 25.644 21.755 10.485 
620 8 1 25.787 20.979  8.244 
621 8 1 25.161 20.582  5.828 
622 8 1 24.248 19.822  3.544 
623 8 1 23.187 18.774  1.518 
624 8 1 22.342 17.201 -0.261 
625 8 1 22.479 15.208 -1.552 
626 8 1 23.614 13.199 -2.608 
627 8 1 24.042 10.911 -3.782 
628 8 1 24.594  8.529 -4.734 
629 8 1 25.295  6.176 54.621 
630 8 1 26.329  4.080 53.652 
631 8 1 25.535 41.807 53.735 
632 8 1 27.475 40.546 52.925 
633 8 1 29.785 39.664 52.229 
634 8 1 32.019 38.663 51.724 
635 8 1 34.298 37.892 50.902 
636 8 1 36.576 36.812 50.626 
637 8 1 38.685 35.354 50.539 
638 8 1 40.644 33.808 50.167 
639 8 1 42.644 32.189 49.951 
640 8 1 44.831 30.726 50.429 
641 8 1 46.771 29.370 51.441 
642 8 1 48.663 27.930 51.207 
643 8 1 -0.223 26.658 50.061 
644 8 1  1.870 25.701 48.831 
645 8 1  2.122 25.176 46.345 
646 8 1  1.549 23.628 44.852 
647 8 1  0.126 22.361 43.404 
648 8 1 48.511 23.219 42.869 
649 8 1 46.162 24.030 42.587 
650 8 1 43.675 24.516 42.245 
651 8 1 41.511 25.144 42.847 
652 8 1 39.614 25.776 44.315 
653 8 1 37.656 26.795 45.733 
654 8 1 35.905 28.061 47.119 
655 8 1 34.363 29.571 48.429 
656 8 1 32.740 31.094 49.833 
657 8 1 33.472 32.276 52.045 
658 8 1 35.029 33.288 53.544 
659 8 1 37.452 33.994 54.372 
660 8 1 39.799 34.540 -4.867 
661 8 1 42.079 33.385 54.802 
662 8 1 42.875 30.992 -5.037 
663 8 1 42.991 28.703 -5.393 
664 8 1 42.483 26.556 53.570 
665 8 1 42.457 26.625 50.947 
666 8 1 43.020 26.289 48.517 
667 8 1 44.308 26.864 46.739 
668 8 1 46.316 27.794 45.488 
669 8 1 48.014 28.739 43.871 
670 8 1 49.455 29.650 41.980 
671 8 1 -0.345 30.593 39.868 
672 8 1  0.451 30.793 37.648 
673 8 1 49.888 31.737 35.924 
674 8 1 48.819 33.552 34.463 
675 9 1 39.807 12.575 15.987 
676 9 1 40.622 14.675 14.799 
677 9 1 41.605 16.850 13.829 
678 9 1 43.054 18.358 12.713 
679 9 1 45.178 18.843 11.325 
680 9 1 46.191 20.053  9.649 
681 9 1 46.209 21.648  7.708 
682 9 1 45.753 24.190  7.859 
683 9 1 46.665 26.326  7.914 
684 9 1 47.649 28.079  9.164 
685 9 1 49.392 28.027 10.859 
686 9 1  0.958 27.576 11.691 
687 9 1  3.339 26.777 12.432 
688 9 1  5.488 28.137 12.680 
689 9 1  7.982 27.650 11.964 
690 9 1  9.039 26.201 13.425 
691 9 1  9.504 24.184 14.810 
692 9 1  9.952 21.920 15.910 
693 9 1  8.164 20.335 15.614 
694 9 1  6.031 19.539 15.166 
695 9 1  3.702 19.104 14.195 
696 9 1  1.285 18.850 13.308 
697 9 1 -0.818 18.165 13.830 
698 9 1 48.011 17.528 15.283 
699 9 1 47.838 16.382 17.651 
700 9 1 47.577 15.446 20.064 
701 9 1 47.282 14.374 22.406 
702 9 1 46.936 13.264 24.590 
703 9 1 46.440 12.247 26.867 
704 9 1 45.639 11.319 29.179 
705 9 1 44.722 10.466 31.379 
706 9 1 43.548  9.768 33.511 
707 9 1 42.857  8.196 35.119 
708 9 1 40.919  6.480 34.820 
709 9 1 41.215  4.084 33.765 
710 9 1 42.378 42.628 32.599 
711 9 1 43.616 42.381 30.543 
712 9 1 44.252 44.676 29.499 
713 9 1 45.454  6.620 28.734 
714 9 1 44.919  7.456 26.442 
715 9 1 43.664  6.699 24.575 
716 9 1 44.522  4.846 23.279 
717 9 1 43.486  5.140 21.243 
718 9 1 41.796  4.746 19.421 
719 9 1 40.361  3.879 17.374 
720 9 1 38.774 43.593 15.496 
721 9 1 37.196 43.077 13.527 
722 9 1 35.020 43.406 14.174 
723 9 1 33.204 44.603 15.436 
724 9 1 31.892  5.520 17.413 
725 9 1 32.277  6.113 19.940 
726 9 1 33.180  8.368 20.908 
727 9 1 34.420 10.222 21.185 
728 9 1 36.656 11.332 20.801 
729 9 1 38.092 12.980 20.025 
730 9 1 39.202 15.263 19.654 
731 9 1 40.727 17.210 19.324 
732 9 1 42.395 19.088 18.800 
733 9 1 43.225 20.674 17.392 
734 9 1 42.995 21.820 15.118 
735 9 1 43.517 23.097 13.213 
736 9 1 44.982 24.904 12.155 
737 9 1 44.515 27.481 12.521 
738 9 1 43.863 29.953 13.041 
739 9 1 43.207 32.324 13.490 
740 9 1 42.456 34.721 13.917 
741 9 1 41.711 37.143 14.191 
742 9 1 40.742 39.065 13.389 
743 9 1 41.171 39.941 10.937 
744 9 1 41.702 40.511  8.528 
745 9 1 43.011 41.464  6.840 
746 9 1 45.154 40.123  6.208 
747 9 1 46.926 38.704  4.917 
748 9 1 48.395 39.340  2.807 
749 9 1 49.695 39.995  0.660 
750 9 1 -0.007 40.767 -1.537 
751 9 1  0.650 41.124 -3.947 
752 9 1  0.688 38.910 -4.852 
753 10 1 39.156 28.912 26.650 
754 10 1 39.167 26.572 26.616 
755 10 1 39.834 24.049 27.092 
756 10 1 39.652 21.736 26.770 
757 10 1 38.745 19.566 25.784 
758 10 1 38.010 17.336 25.820 
759 10 1 37.097 16.310 27.712 
760 10 1 35.411 16.589 29.610 
761 10 1 35.548 18.959 30.243 
762 10 1 36.763 20.815 30.840 
763 10 1 38.881 21.769 31.983 
764 10 1 41.038 23.150 32.440 
765 10 1 42.391 25.100 32.519 
766 10 1 42.873 27.572 32.034 
767 10 1 41.363 29.309 31.032 
768 10 1 41.810 31.890 30.912 
769 10 1 42.822 34.140 30.799 
770 10 1 43.965 36.417 30.681 
771 10 1 45.892 37.691 30.843 
772 10 1 47.449 37.674 28.868 
773 10 1 49.062 38.202 26.992 
774 10 1  0.050 38.930 25.339 
775 10 1  1.384 39.541 23.460 
776 10 1  1.953 40.528 21.125 
777 10 1  0.238 40.678 19.223 
778 10 1 48.898 41.266 17.902 
779 10 1 46.647 42.242 17.099 
780 10 1 45.708 43.113 14.760 
781 10 1 45.503 43.022 12.458 
782 10 1 46.057 43.085 10.255 
783 10 1 47.222 44.086  8.162 
784 10 1 48.763 42.723  6.683 
785 10 1  0.020 43.375  5.325 
786 10 1  2.358 44.017  6.222 
787 10 1  3.438 42.125  7.070 
788 10 1  3.248 41.828  9.609 
789 10 1  2.605 42.371 11.744 
790 10 1  1.391 43.841 13.604 
791 10 1  0.462  5.387 15.355 
792 10 1 49.877  5.823 17.215 
793 10 1 49.267  5.289 19.641 
794 10 1 48.796  4.952 22.127 
795 10 1 49.563 43.132 23.699 
796 10 1 48.731 42.612 26.086 
797 10 1 48.236 42.931 28.706 
798 10 1 49.423 41.588 30.462 
799 10 1 -0.382 39.891 32.116 
800 10 1 50.070 39.983 34.659 
801 10 1 49.445 39.944 37.097 
802 10 1 48.804 40.683 39.213 
803 10 1 48.228 42.335 41.064 
804 10 1 47.631 42.950 43.202 
805 10 1 47.583 42.405 45.703 
806 10 1 47.737 41.324 48.086 
807 10 1 48.197 40.164 50.367 
808 10 1 49.920 38.248 50.801 
809 10 1  0.963 36.752 50.644 
810 10 1  2.639 35.599 49.622 
811 10 1  3.703 34.406 47.613 
812 10 1  4.923 33.357 45.618 
813 10 1  4.004 33.356 43.217 
814 10 1  2.835 33.840 40.940 
815 10 1  3.222 35.552 39.033 
816 10 1  3.087 37.653 38.155 
817 10 1  3.589 39.904 38.048 
818 10 1  4.983 42.140 38.191 
819 10 1  6.183 43.911 37.160 
820 10 1  6.836  5.229 35.117 
821 10 1  7.691  7.227 34.129 
822 10 1  8.810  9.637 34.478 
823 10 1 10.671 10.136 33.224 
824 10 1 12.178 11.345 31.850 
825 10 1 11.677 13.499 31.189 
826 10 1 10.713 15.405 30.301 
827 10 1  9.070 17.321 30.577 
828 10 1  7.318 19.113 31.248 
829 10 1  5.474 20.879 31.649 
830 10 1  3.719 22.866 31.399 
831 11 1 42.805 39.806 27.079 
832 11 1 44.456 40.489 25.244 
833 11 1 45.939 38.973 23.764 
834 11 1 47.663 37.444 22.640 
835 11 1 49.713 36.269 21.702 
836 11 1 -1.005 35.482 19.482 
837 11 1 -0.140 33.262 20.074 
838 11 1  0.860 31.280 21.477 
839 11 1  1.400 29.090 22.702 
840 11 1  2.312 26.989 23.836 
841 11 1  3.426 24.833 24.618 
842 11 1  5.132 23.268 24.770 
843 11 1  7.561 22.413 25.151 
844 11 1 10.010 21.607 25.665 
845 11 1 11.598 20.263 26.614 
846 11 1 13.211 18.882 27.675 
847 11 1 15.416 17.782 28.466 
848 11 1 17.579 16.774 29.466 
849 11 1 19.805 18.088 29.491 
850 11 1 20.688 20.070 29.323 
851 11 1 20.714 22.623 29.460 
852 11 1 21.590 24.592 30.380 
853 11 1 21.712 25.318 32.956 
854 11 1 21.763 26.129 35.295 
855 11 1 21.731 27.323 37.559 
856 11 1 20.855 29.071 38.917 
857 11 1 19.713 31.157 39.812 
858 11 1 20.145 33.646 39.572 
859 11 1 20.150 36.184 39.133 
860 11 1 20.619 38.480 38.346 
861 11 1 21.965 40.470 37.348 
862 11 1 21.802 41.766 35.129 
863 11 1 23.302 41.864 33.016 
864 11 1 22.622 42.788 30.753 
865 11 1 21.989 43.623 28.432 
866 11 1 21.041  4.962 26.583 
867 11 1 21.744  4.906 24.125 
868 11 1 22.543  4.999 21.577 
869 11 1 23.503  5.337 19.259 
870 11 1 25.270  5.845 17.654 
871 11 1 27.184  7.636 18.046 
872 11 1 29.052  9.350 17.727 
873 11 1 30.218 11.041 16.788 
874 11 1 30.763 13.131 15.372 
875 11 1 31.660 14.863 13.607 
876 11 1 32.639 16.626 11.954 
877 11 1 33.820 18.292 10.298 
878 11 1 32.430 20.231  9.297 
879 11 1 31.110 21.849  7.853 
880 11 1 29.875 22.982  5.860 
881 11 1 29.126 22.186  3.545 
882 11 1 28.246 21.320  1.313 
883 11 1 29.794 21.603 -0.692 
884 11 1 31.891 21.906 -2.208 
885 11 1 32.913 24.098 -1.961 
886 11 1 33.256 26.417 -0.645 
887 11 1 33.543 28.622  0.643 
888 11 1 34.744 29.261  2.835 
889 11 1 35.980 29.821  5.003 
890 11 1 37.587 29.418  6.529 
891 11 1 39.716 28.058  7.171 
892 11 1 41.155 26.520  8.233 
893 11 1 41.585 24.376  9.438 
894 11 1 41.772 21.825  8.873 
895 11 1 41.536 19.236  8.486 
896 11 1 41.387 16.685  8.117 
897 11 1 43.042 15.397  9.276 
898 11 1 45.404 14.824 10.110 
899 11 1 47.838 14.764 10.878 
900 11 1 50.444 14.773 11.297 
901 11 1  2.166 14.917 12.083 
902 11 1  4.318 13.568 11.600 
903 11 1  6.573 12.491 11.056 
904 11 1  8.583 11.107 10.995 
905 11 1  9.642  8.848 11.452 
906 11 1 10.097  6.698 10.820 
907 11 1  8.285  5.960  9.044 
908 11 1  6.388  6.117  7.595 
909 12 1 41.979  4.132 52.453 
910 12 1 43.132 42.443 50.960 
911 12 1 43.735 40.397 49.554 
912 12 1 43.925 38.090 48.454 
913 12 1 45.876 36.443 48.575 
914 12 1 47.603 34.658 48.678 
915 12 1 49.153 33.006 48.061 
916 12 1 -0.010 31.608 46.627 
917 12 1  1.730 30.086 45.436 
918 12 1  3.761 28.947 44.279 
919 12 1  4.452 28.676 41.783 
920 12 1  5.274 29.536 39.799 
921 12 1  5.796 29.933 37.679 
922 12 1  7.816 28.866 37.447 
923 12 1 10.348 28.595 37.834 
924 12 1 12.252 27.436 38.332 
925 12 1 12.297 26.203 40.427 
926 12 1 12.858 25.417 42.582 
927 12 1 14.083 25.324 44.834 
928 12 1 15.672 24.728 46.803 
929 12 1 16.460 26.469 47.998 
930 12 1 15.785 26.417 50.451 
931 12 1 15.002 26.369 52.910 
932 12 1 13.266 25.822 54.655 
933 12 1 11.535 24.721 -4.385 
934 12 1  9.556 23.151 -3.777 
935 12 1  8.919 20.810 -4.570 
936 12 1  8.318 18.402 -4.999 
937 12 1  7.836 15.922 -4.907 
938 12 1  8.368 13.619 -4.952 
939 12 1  9.970 11.674 -5.433 
940 12 1 11.875  9.816 54.611 
941 12 1 13.704  8.050 54.247 
942 12 1 15.535  6.350 53.604 
943 12 1 17.232  4.914 52.389 
944 12 1 17.880 44.735 50.215 
945 12 1 17.049  3.864 48.168 
946 12 1 15.818 42.220 46.638 
947 12 1 14.645 41.085 44.791 
948 12 1 13.640 42.739 43.230 
949 12 1 12.251 44.316 41.792 
950 12 1 10.791  5.814 40.464 
951 12 1 10.476  5.269 38.191 
952 12 1 11.119  4.768 35.716 
953 12 1 11.843 44.027 33.422 
954 12 1 12.843 41.967 33.112 
955 12 1 13.897 39.891 33.201 
956 12 1 15.352 38.489 34.323 
957 12 1 15.728 36.559 35.501 
958 12 1 15.851 33.967 35.715 
959 12 1 16.109 31.395 35.521 
960 12 1 16.426 28.814 35.264 
961 12 1 16.767 26.244 34.659 
962 12 1 15.081 24.295 34.171 
963 12 1 13.821 22.661 35.819 
964 12 1 13.544 21.738 37.972 
965 12 1 14.152 21.514 40.479 
966 12 1 14.856 21.222 42.962 
967 12 1 15.664 20.854 45.390 
968 12 1 16.737 20.592 47.697 
969 12 1 18.245 20.786 49.783 
970 12 1 18.709 21.694 51.854 
971 12 1 18.272 23.060 53.944 
972 12 1 17.512 24.269 -4.130 
973 12 1 17.037 25.383 -1.848 
974 12 1 16.600 25.584  0.512 
975 12 1 16.331 25.881  2.771 
976 12 1 14.774 27.944  2.556 
977 12 1 15.314 30.134  3.782 
978 12 1 16.031 32.045  5.185 
979 12 1 15.089 33.264  6.857 
980 12 1 16.588 34.244  8.474 
981 12 1 18.273 34.777  9.937 
982 12 1 19.842 35.050 11.870 
983 12 1 19.163 35.690 14.284 
984 12 1 18.397 36.284 16.726 
985 12 1 17.453 36.749 19.050 
986 12 1 16.566 36.910 21.547 