LAMMPS data file generated by aa2cg.

2000 atoms
1 atom types
1975 bonds
1 bond types
1950 angles
1 angle types
1925 dihedrals
1 dihedral types

 0.000 44.277 xlo xhi
 0.000 49.469 ylo yhi
 0.000 55.797 zlo zhi

Masses

1 24.022

Atoms # molecular

1 1 1 19.540  5.253 45.283 
2 1 1 40.123 48.122 32.530 
3 2 1  2.865 24.453 48.957 
4 2 1  6.790 17.059 49.314 
5 3 1 17.734 34.137 26.229 
6 3 1 30.678 27.494 31.934 
7 4 1 27.334 49.409 -0.651 
8 4 1  7.636 20.658 26.185 
9 5 1 15.138 31.020 45.256 
10 5 1 13.791 23.748 38.299 
11 6 1 22.580 30.743 39.772 
12 6 1 23.638 17.853  0.487 
13 7 1  5.418 32.754 29.307 
14 7 1  3.825  9.232 14.526 
15 8 1 45.075 44.521  3.611 
16 8 1 25.210 35.453 31.349 
17 9 1 38.460 30.813  3.197 
18 9 1 37.871 26.436 41.358 
19 10 1 43.277 26.064 23.164 
20 10 1  4.077 29.351 38.545 
21 11 1 39.017 41.819 32.945 
22 11 1 12.099  5.102 22.562 
23 12 1 22.028 41.806 10.247 
24 12 1  4.579  1.011 18.091 
25 13 1 16.060 24.975 20.974 
26 13 1 44.801 37.959 18.832 
27 14 1 22.143 21.999 41.933 
28 14 1 41.053 10.132 22.344 
29 15 1 16.429 26.534 16.752 
30 15 1 27.340 41.297 44.267 
31 16 1 28.389  2.648 30.539 
32 16 1 16.641  7.263 22.892 
33 17 1  5.117  0.820 25.199 
34 17 1 15.370 36.111 37.631 
35 18 1 22.021 27.582  7.475 
36 18 1 32.197 47.513 47.994 
37 19 1 19.671 20.478  6.919 
38 19 1 44.914  3.121 47.900 
39 20 1 24.130  6.313 34.624 
40 20 1 17.564  0.766 13.196 
41 21 1  2.343 39.132 32.802 
42 21 1 44.525 40.307 22.491 
43 22 1 21.249 41.485  0.031 
44 22 1 11.816  0.135 -2.250 
45 23 1 46.764 47.955  0.729 
46 23 1 15.282 21.647 44.676 
47 24 1 10.128  0.352 39.825 
48 24 1 36.217 15.501 22.653 
49 25 1 43.989  6.787 29.898 
50 25 1 13.717 29.678 13.013 
51 1 1 21.186  5.199 47.301 
52 1 1 23.109  5.773 48.845 
53 1 1 25.259  6.600 49.823 
54 1 1 27.588  6.150 48.946 
55 1 1 29.957  6.101 48.046 
56 1 1 32.077  6.152 46.687 
57 1 1 33.107  4.011 45.518 
58 1 1 33.869  1.770 44.370 
59 1 1 34.416 -0.202 42.793 
60 1 1 34.931 47.335 41.125 
61 1 1 35.574 46.004 39.018 
62 1 1 37.993 45.580 38.086 
63 1 1 40.301 45.253 36.820 
64 1 1 42.456 45.968 36.882 
65 1 1 44.375 47.537 37.839 
66 1 1 46.188 49.250 38.441 
67 1 1  3.621  1.608 38.883 
68 1 1  5.512  3.325 39.467 
69 1 1  7.762  4.560 39.814 
70 1 1  9.147  4.384 41.937 
71 1 1  9.736  4.328 44.318 
72 1 1  7.697  4.772 45.765 
73 1 1  5.386  4.640 46.046 
74 1 1  4.061  2.697 44.799 
75 1 1  4.044  0.634 43.783 
76 1 1  4.925 47.832 43.034 
77 1 1  5.575 45.521 42.378 
78 1 1  6.658 43.227 41.877 
79 1 1  7.055 41.644 39.972 
80 1 1  7.469 40.075 38.030 
81 1 1  7.774 38.349 36.135 
82 1 1  8.225 36.786 34.230 
83 1 1  8.694 35.147 32.278 
84 1 1  9.575 32.664 32.384 
85 1 1 10.264 30.288 32.185 
86 1 1 10.230 28.143 32.877 
87 1 1  9.803 26.200 34.681 
88 1 1  9.142 24.468 36.637 
89 1 1  8.302 23.024 38.597 
90 1 1  8.176 23.808 41.079 
91 1 1  8.729 24.617 43.287 
92 1 1 10.582 25.226 45.012 
93 1 1 11.324 26.075 47.310 
94 1 1 11.352 27.446 49.620 
95 1 1 10.983 28.351 51.974 
96 1 1 10.214 29.062 -1.425 
97 1 1  9.809 29.868  1.024 
98 1 1  9.680 31.649  2.880 
99 1 1 10.420 33.616  3.919 
100 1 1 11.354 35.887  4.195 
101 1 1 12.776 37.108  2.413 
102 1 1 14.217 38.173  0.532 
103 1 1 15.975 38.996 -1.135 
104 1 1 16.135 41.547 -1.663 
105 1 1 15.363 43.615 -2.309 
106 1 1 14.210 45.443 -3.210 
107 1 1 15.417 46.390 50.511 
108 1 1 16.256 47.502 48.315 
109 1 1 17.029 48.616 46.126 
110 1 1 17.476 49.851 43.992 
111 1 1 17.713  1.634 41.740 
112 1 1 18.100  3.006 39.618 
113 1 1 17.050  4.047 37.486 
114 1 1 17.108  6.499 36.665 
115 1 1 17.292  8.934 35.735 
116 1 1 15.734 10.964 35.387 
117 1 1 14.288 12.699 36.114 
118 1 1 13.130 12.625 38.125 
119 1 1 11.713 11.275 39.561 
120 1 1 12.194  8.826 39.106 
121 1 1 12.233  6.729 37.957 
122 1 1 11.715  4.910 36.180 
123 1 1  9.646  3.452 35.907 
124 1 1  7.355  2.470 35.317 
125 1 1  5.114  1.604 34.739 
126 1 1  2.667  1.252 34.341 
127 1 1 44.652  0.212 34.053 
128 1 1 42.388 -0.470 33.358 
129 2 1 45.083 24.703 48.313 
130 2 1 42.845 24.028 47.447 
131 2 1 40.323 23.570 46.891 
132 2 1 37.875 23.493 46.184 
133 2 1 36.044 22.123 44.818 
134 2 1 35.091 21.554 42.843 
135 2 1 35.035 21.444 40.233 
136 2 1 36.004 23.432 38.806 
137 2 1 38.524 23.746 38.370 
138 2 1 41.057 24.347 38.306 
139 2 1 43.543 24.935 38.367 
140 2 1 46.063 25.065 38.146 
141 2 1  4.272 25.393 37.714 
142 2 1  5.477 25.065 35.498 
143 2 1  5.394 24.439 33.313 
144 2 1  4.007 23.402 31.288 
145 2 1  2.504 22.731 29.308 
146 2 1 45.470 22.077 27.274 
147 2 1 43.507 20.385 27.152 
148 2 1 41.644 18.704 26.839 
149 2 1 39.772 16.934 25.963 
150 2 1 39.053 14.758 25.826 
151 2 1 38.178 12.597 25.900 
152 2 1 36.507 10.667 25.339 
153 2 1 36.299  9.886 23.140 
154 2 1 37.191  8.715 20.977 
155 2 1 37.064  7.295 18.886 
156 2 1 36.756  5.886 16.779 
157 2 1 36.530  4.348 14.624 
158 2 1 36.120  2.984 12.481 
159 2 1 35.431  1.271 10.633 
160 2 1 34.987 -0.382  8.749 
161 2 1 34.916 47.588  6.694 
162 2 1 34.006 46.900  4.637 
163 2 1 32.384 46.632  2.635 
164 2 1 32.912 47.614  0.279 
165 2 1 32.325  0.597 -0.483 
166 2 1 32.189  2.812  0.099 
167 2 1 32.210  4.790  1.701 
168 2 1 31.755  6.498  3.534 
169 2 1 31.272  7.941  5.631 
170 2 1 31.412  7.048  8.074 
171 2 1 33.509  6.462  8.820 
172 2 1 35.708  6.134  9.393 
173 2 1 37.888  6.378 10.716 
174 2 1 40.133  7.622 11.221 
175 2 1 42.155  9.075 11.816 
176 2 1 44.290 10.034 11.681 
177 2 1 46.682 10.615 10.685 
178 2 1  4.693 11.507  9.975 
179 2 1  6.796 12.750  9.333 
180 2 1  8.639 14.342  8.549 
181 2 1 10.005 16.192  8.827 
182 2 1 11.087 18.302  9.963 
183 2 1 10.147 19.504 12.099 
184 2 1  8.237 20.867 12.107 
185 2 1  6.335 22.283 12.392 
186 2 1  5.111 22.490 14.541 
187 2 1  3.417 22.766 16.348 
188 2 1  2.632 24.001 18.106 
189 2 1 44.958 24.993 18.720 
190 2 1 42.407 24.913 18.790 
191 2 1 39.843 24.687 18.919 
192 2 1 38.044 23.701 20.037 
193 2 1 37.389 22.624 22.326 
194 2 1 36.899 21.429 24.474 
195 2 1 36.471 20.064 26.574 
196 2 1 36.140 18.748 28.752 
197 2 1 36.605 19.621 30.998 
198 2 1 37.281 20.885 32.792 
199 2 1 38.499 21.644 34.691 
200 2 1 40.996 20.947 35.378 
201 2 1 41.764 19.170 37.154 
202 2 1 43.506 19.058 39.100 
203 2 1 44.941 18.588 41.225 
204 2 1 46.198 18.141 43.384 
205 2 1  3.344 17.820 45.504 
206 2 1  4.888 17.431 47.526 
207 3 1 19.105 32.737 24.461 
208 3 1 19.623 30.215 24.058 
209 3 1 19.644 28.143 22.977 
210 3 1 20.010 28.522 20.454 
211 3 1 20.721 29.659 18.604 
212 3 1 21.991 31.298 17.346 
213 3 1 23.757 32.345 16.147 
214 3 1 26.196 32.949 15.747 
215 3 1 28.548 33.756 15.485 
216 3 1 30.200 34.248 17.332 
217 3 1 32.232 34.654 19.049 
218 3 1 34.254 35.032 20.695 
219 3 1 35.560 36.196 22.150 
220 3 1 36.072 38.587 22.936 
221 3 1 36.820 41.047 23.559 
222 3 1 36.366 43.491 22.758 
223 3 1 35.919 45.950 22.240 
224 3 1 35.394 48.365 22.040 
225 3 1 35.019  1.472 22.241 
226 3 1 34.561  4.036 22.206 
227 3 1 33.563  6.005 21.506 
228 3 1 32.094  7.564 20.050 
229 3 1 31.128  9.259 18.371 
230 3 1 29.837  8.759 16.148 
231 3 1 28.583  8.277 13.946 
232 3 1 27.917  9.827 11.903 
233 3 1 26.879 10.829  9.807 
234 3 1 25.997 11.704  7.572 
235 3 1 24.814 12.614  5.536 
236 3 1 24.062 11.485  3.314 
237 3 1 23.023 10.756  1.152 
238 3 1 23.845 10.540 -1.224 
239 3 1 24.373 10.057 -3.636 
240 3 1 22.585 10.128 50.310 
241 3 1 20.763 10.055 48.424 
242 3 1 21.002 10.608 45.955 
243 3 1 20.939 11.666 43.550 
244 3 1 21.542 12.582 41.478 
245 3 1 23.356 12.823 39.637 
246 3 1 25.265 13.252 38.037 
247 3 1 26.102 11.718 36.253 
248 3 1 27.077 10.174 34.506 
249 3 1 28.415  8.485 32.935 
250 3 1 29.773  7.055 31.270 
251 3 1 31.532  5.769 29.870 
252 3 1 33.476  4.665 28.526 
253 3 1 35.232  5.896 27.040 
254 3 1 37.564  5.000 26.306 
255 3 1 39.571  6.580 26.075 
256 3 1 41.752  7.972 25.988 
257 3 1 44.278  8.733 25.878 
258 3 1 46.696  9.606 26.025 
259 3 1  3.972 10.999 26.971 
260 3 1  5.657 10.358 28.954 
261 3 1  4.694 10.893 31.115 
262 3 1  3.571 13.208 31.236 
263 3 1 45.785 13.521 30.110 
264 3 1 44.376 13.786 28.040 
265 3 1 43.102 13.311 25.788 
266 3 1 44.480 13.129 23.598 
267 3 1 46.074 12.948 21.441 
268 3 1  3.495 13.873 20.207 
269 3 1  5.803 14.949 19.822 
270 3 1  7.275 16.395 21.323 
271 3 1  8.543 17.799 22.997 
272 3 1 10.529 16.885 24.568 
273 3 1 11.649 17.950 26.710 
274 3 1 12.703 19.192 28.753 
275 3 1 14.275 21.174 28.596 
276 3 1 15.782 23.197 28.688 
277 3 1 16.310 25.274 27.966 
278 3 1 18.108 25.397 26.700 
279 3 1 20.611 25.538 26.334 
280 3 1 23.095 25.517 25.793 
281 3 1 25.717 25.642 25.208 
282 3 1 27.409 26.530 26.855 
283 3 1 29.972 27.071 27.282 
284 3 1 30.770 27.717 29.641 
285 4 1 27.353  1.844  1.110 
286 4 1 27.486  3.252  3.162 
287 4 1 26.088  5.001  4.453 
288 4 1 24.635  6.769  5.583 
289 4 1 22.941  8.458  6.685 
290 4 1 21.292 10.195  7.519 
291 4 1 19.855 12.099  8.022 
292 4 1 18.689 14.297  8.661 
293 4 1 17.718 16.562  9.423 
294 4 1 15.837 16.748 10.741 
295 4 1 13.697 16.003 11.654 
296 4 1 11.770 14.428 12.598 
297 4 1  9.663 13.064 13.047 
298 4 1  9.283 10.532 12.912 
299 4 1  9.620  8.246 13.049 
300 4 1 11.095  6.436 13.483 
301 4 1 13.591  6.572 14.263 
302 4 1 15.502  6.728 12.552 
303 4 1 16.128  6.575 10.344 
304 4 1 15.948  6.475  7.734 
305 4 1 16.544  6.347  5.258 
306 4 1 15.187  4.826  3.766 
307 4 1 13.917  2.876  2.685 
308 4 1 12.466  1.182  2.969 
309 4 1 10.628  0.126  4.425 
310 4 1  9.237 47.975  5.404 
311 4 1  6.891 47.453  4.373 
312 4 1  6.342 45.985  2.363 
313 4 1  6.102 44.151  0.594 
314 4 1  6.127 42.313 -1.160 
315 4 1  7.083 41.211 -2.895 
316 4 1  8.800 41.726 51.062 
317 4 1 11.064 40.671 50.221 
318 4 1 13.435 41.814 50.166 
319 4 1 15.622 40.963 49.054 
320 4 1 17.803 41.929 49.750 
321 4 1 19.946 43.554 50.137 
322 4 1 20.325 45.789 48.830 
323 4 1 20.763 47.963 47.632 
324 4 1 21.513  0.478 46.034 
325 4 1 24.000  1.495 46.161 
326 4 1 26.537  1.628 46.065 
327 4 1 29.060  1.774 45.750 
328 4 1 29.700  0.327 44.120 
329 4 1 30.017 47.523 43.017 
330 4 1 28.123 45.947 43.161 
331 4 1 25.859 46.967 42.808 
332 4 1 23.397 47.728 42.631 
333 4 1 21.106 46.499 42.269 
334 4 1 18.739 45.408 42.250 
335 4 1 16.323 44.427 42.308 
336 4 1 15.035 43.218 44.280 
337 4 1 13.720 44.253 46.083 
338 4 1 12.166 44.955 48.066 
339 4 1 10.563 45.478 49.943 
340 4 1  8.970 45.931 51.990 
341 4 1  7.601 47.230 -2.513 
342 4 1  6.986 49.157 -1.473 
343 4 1  7.708  1.467  0.134 
344 4 1  8.629  3.188  1.863 
345 4 1  9.637  4.600  3.753 
346 4 1 11.108  6.625  3.508 
347 4 1 12.688  8.558  3.863 
348 4 1 14.478 10.104  4.805 
349 4 1 15.854 12.045  4.995 
350 4 1 14.456 14.167  5.081 
351 4 1 13.274 16.278  5.391 
352 4 1 13.959 18.326  6.147 
353 4 1 14.293 20.004  8.034 
354 4 1 14.390 21.592 10.080 
355 4 1 14.820 23.115 12.052 
356 4 1 13.211 24.994 13.067 
357 4 1 12.418 25.252 15.531 
358 4 1 11.858 25.723 18.075 
359 4 1 11.567 26.376 20.571 
360 4 1 10.578 26.235 22.693 
361 4 1  9.049 25.248 24.601 
362 4 1  8.259 22.965 25.380 
363 5 1 15.543 30.024 47.337 
364 5 1 15.498 29.731 49.893 
365 5 1 15.113 29.144 52.378 
366 5 1 14.451 28.622 -1.026 
367 5 1 13.692 27.930  1.355 
368 5 1 13.323 27.106  3.793 
369 5 1 12.975 26.238  6.165 
370 5 1 11.412 25.263  8.116 
371 5 1  9.690 23.927  8.580 
372 5 1  7.656 22.474  8.129 
373 5 1  6.928 21.800  5.832 
374 5 1  6.057 20.966  3.525 
375 5 1  5.199 19.826  1.402 
376 5 1  4.770 18.094  0.114 
377 5 1  5.358 16.234 -1.543 
378 5 1  7.800 15.556 -2.115 
379 5 1 10.208 14.906 -2.602 
380 5 1 11.949 14.585 51.417 
381 5 1 13.983 14.618 49.892 
382 5 1 16.350 14.952 48.975 
383 5 1 18.490 14.931 47.443 
384 5 1 20.465 15.423 48.504 
385 5 1 22.221 16.961 49.711 
386 5 1 24.238 18.098 50.692 
387 5 1 26.207 19.536 51.728 
388 5 1 27.599 20.349 -2.388 
389 5 1 28.438 20.486  0.058 
390 5 1 29.032 21.601  1.980 
391 5 1 28.843 23.323  3.894 
392 5 1 27.341 25.359  3.680 
393 5 1 25.847 27.174  2.859 
394 5 1 24.469 25.849  1.574 
395 5 1 24.246 23.919 -0.126 
396 5 1 23.161 22.380 -1.433 
397 5 1 21.136 21.162 -2.219 
398 5 1 19.897 19.271 -2.597 
399 5 1 19.755 16.780 -2.305 
400 5 1 19.484 14.547 -2.907 
401 5 1 18.607 12.644 52.021 
402 5 1 16.650 11.024 51.797 
403 5 1 14.598  9.444 51.853 
404 5 1 12.660  7.717 51.487 
405 5 1 12.064  7.322 49.119 
406 5 1 11.894  7.903 46.915 
407 5 1 11.048  8.819 44.700 
408 5 1  8.549  8.653 43.758 
409 5 1  6.237  9.431 44.503 
410 5 1  4.225  7.779 44.111 
411 5 1  2.039  7.746 45.022 
412 5 1 44.784  8.652 46.289 
413 5 1 43.216  9.666 47.614 
414 5 1 40.868 10.019 48.553 
415 5 1 39.231 10.613 50.168 
416 5 1 38.225 11.285 52.428 
417 5 1 36.854 11.934 -1.334 
418 5 1 35.464 12.711  0.739 
419 5 1 33.573 12.960  2.503 
420 5 1 31.432 12.607  3.166 
421 5 1 29.036 12.150  2.235 
422 5 1 28.006  9.757  1.723 
423 5 1 28.636  9.207 -0.412 
424 5 1 30.592  9.294 -1.974 
425 5 1 32.150 10.296 52.435 
426 5 1 33.050 12.388 51.216 
427 5 1 34.198 14.527 50.419 
428 5 1 35.989 15.902 49.596 
429 5 1 38.241 14.980 48.843 
430 5 1 40.556 14.468 47.943 
431 5 1 43.133 14.370 47.282 
432 5 1 45.492 13.755 46.530 
433 5 1  2.870 13.118 45.035 
434 5 1  4.036 13.047 42.753 
435 5 1  5.743 13.657 41.207 
436 5 1  7.939 14.569 40.446 
437 5 1  9.857 15.931 39.302 
438 5 1 11.571 17.569 40.416 
439 5 1 11.199 20.121 40.683 
440 5 1 12.375 22.194 39.593 
441 6 1 23.770 31.460 41.470 
442 6 1 23.934 31.923 44.008 
443 6 1 23.794 30.412 46.047 
444 6 1 23.629 29.151 48.310 
445 6 1 21.402 28.873 49.695 
446 6 1 19.288 28.586 51.230 
447 6 1 19.297 29.263 -2.111 
448 6 1 19.176 29.969  0.332 
449 6 1 19.044 30.570  2.813 
450 6 1 18.528 31.000  5.348 
451 6 1 18.059 31.633  7.842 
452 6 1 17.850 30.347 10.044 
453 6 1 19.058 30.772 12.261 
454 6 1 17.960 31.336 14.540 
455 6 1 16.775 31.893 16.640 
456 6 1 15.985 30.611 18.787 
457 6 1 15.274 29.702 21.171 
458 6 1 14.659 28.653 23.474 
459 6 1 13.644 27.413 25.542 
460 6 1 12.393 26.233 27.493 
461 6 1 11.288 24.962 29.398 
462 6 1 10.033 23.390 30.707 
463 6 1  9.065 21.021 31.267 
464 6 1  7.513 19.265 31.819 
465 6 1  5.419 19.325 30.202 
466 6 1  2.974 18.414 30.241 
467 6 1 44.898 17.778 31.091 
468 6 1 42.524 17.361 31.972 
469 6 1 40.074 16.914 32.743 
470 6 1 38.381 16.781 34.399 
471 6 1 37.387 17.045 36.723 
472 6 1 36.049 16.828 38.837 
473 6 1 35.616 15.975 41.294 
474 6 1 36.515 13.825 42.261 
475 6 1 37.562 11.630 43.296 
476 6 1 38.673  9.332 43.693 
477 6 1 39.289  7.134 43.332 
478 6 1 39.343  4.868 43.620 
479 6 1 41.063  3.420 43.811 
480 6 1 43.167  2.159 43.055 
481 6 1 44.641  3.287 41.472 
482 6 1 44.845  4.534 39.163 
483 6 1 45.066  5.733 36.933 
484 6 1 46.493  6.177 35.045 
485 6 1  3.074  5.082 32.820 
486 6 1  4.040  5.072 30.406 
487 6 1  4.008  4.814 28.159 
488 6 1  2.902  3.916 26.041 
489 6 1 45.840  3.131 24.030 
490 6 1 44.646  2.049 22.073 
491 6 1 44.710  1.584 19.942 
492 6 1 44.629  1.319 17.774 
493 6 1 44.711 -0.032 15.846 
494 6 1 45.466 47.005 16.420 
495 6 1  3.643 46.162 16.724 
496 6 1  4.339 44.083 18.065 
497 6 1  4.443 41.641 18.929 
498 6 1  6.324 39.862 19.365 
499 6 1  6.123 37.296 19.223 
500 6 1  6.186 34.810 18.597 
501 6 1  5.888 33.219 17.048 
502 6 1  5.229 32.542 14.591 
503 6 1  3.961 31.729 12.831 
504 6 1  1.846 31.004 11.593 
505 6 1 43.887 29.949 10.763 
506 6 1 41.744 29.096  9.755 
507 6 1 39.342 28.260  9.006 
508 6 1 37.767 27.339  7.519 
509 6 1 36.948 26.545  5.308 
510 6 1 36.233 25.703  2.964 
511 6 1 35.687 24.508  0.746 
512 6 1 34.927 22.698 -0.549 
513 6 1 34.135 20.415 -1.168 
514 6 1 33.317 17.909 -1.478 
515 6 1 31.943 15.998 -1.512 
516 6 1 29.774 14.592 -1.493 
517 6 1 27.430 15.417 -0.719 
518 6 1 25.121 16.285 -0.114 
519 7 1  7.767 32.888 28.222 
520 7 1  8.482 33.995 25.973 
521 7 1  9.212 35.016 23.754 
522 7 1 10.133 36.248 21.596 
523 7 1 10.913 38.253 20.639 
524 7 1 11.109 40.815 20.881 
525 7 1 13.360 42.049 21.189 
526 7 1 13.899 43.390 23.397 
527 7 1 13.929 43.868 25.697 
528 7 1 13.211 43.932 28.191 
529 7 1 13.614 44.174 30.521 
530 7 1 14.965 44.881 32.592 
531 7 1 16.592 45.980 34.293 
532 7 1 18.184 46.920 36.069 
533 7 1 19.474 47.933 37.993 
534 7 1 21.709 49.194 37.623 
535 7 1 22.328  2.048 38.739 
536 7 1 22.709  3.233 40.664 
537 7 1 23.397  4.423 42.603 
538 7 1 24.679  5.760 44.359 
539 7 1 27.036  6.580 43.787 
540 7 1 29.454  7.181 43.156 
541 7 1 31.043  8.759 42.156 
542 7 1 32.147 10.557 40.677 
543 7 1 31.650 12.341 38.862 
544 7 1 31.397 13.234 36.768 
545 7 1 30.890 12.884 34.247 
546 7 1 32.336 11.227 32.610 
547 7 1 33.601  9.360 32.299 
548 7 1 35.167  7.607 32.031 
549 7 1 36.734  8.487 30.162 
550 7 1 38.837  9.806 30.636 
551 7 1 40.707 11.531 30.757 
552 7 1 42.754 11.326 32.031 
553 7 1 44.451 11.628 34.016 
554 7 1 46.349 12.000 35.746 
555 7 1  4.381 11.826 36.021 
556 7 1  6.983 11.771 35.510 
557 7 1  9.521 11.323 35.364 
558 7 1 10.929 10.587 33.337 
559 7 1 12.367  9.762 31.472 
560 7 1 14.083  8.934 29.686 
561 7 1 16.546  8.414 30.384 
562 7 1 18.627  8.830 31.437 
563 7 1 20.368  9.930 32.958 
564 7 1 21.618 10.640 35.090 
565 7 1 20.449 12.037 36.596 
566 7 1 18.814 12.527 38.564 
567 7 1 17.219 12.790 40.598 
568 7 1 15.267 12.660 42.309 
569 7 1 15.214 11.746 44.690 
570 7 1 16.238 10.380 46.356 
571 7 1 17.167  8.341 47.632 
572 7 1 17.798  7.191 49.498 
573 7 1 18.906  7.049 51.748 
574 7 1 19.870  7.258 -1.700 
575 7 1 22.161  6.688 -1.144 
576 7 1 23.812  4.725 -1.121 
577 7 1 23.156  2.348 -0.191 
578 7 1 22.563 -0.011  0.749 
579 7 1 23.628 49.269  2.732 
580 7 1 24.139  0.417  5.190 
581 7 1 25.000  0.116  7.304 
582 7 1 26.480 48.196  8.830 
583 7 1 28.015 46.900 10.294 
584 7 1 29.394 45.672 11.972 
585 7 1 30.781 44.138 13.521 
586 7 1 31.872 42.773 15.422 
587 7 1 33.406 42.429 17.110 
588 7 1 35.677 42.960 18.254 
589 7 1 37.637 44.538 17.412 
590 7 1 39.643 45.793 16.367 
591 7 1 39.750 48.271 15.695 
592 7 1 39.647  1.083 14.744 
593 7 1 40.986  3.196 15.373 
594 7 1 42.493  5.262 15.866 
595 7 1 44.323  7.104 16.101 
596 7 1 46.386  8.758 16.294 
597 8 1 44.901 43.467  1.537 
598 8 1 45.252 42.433 -0.513 
599 8 1 46.103 41.864 -2.904 
600 8 1  2.151 40.406 51.143 
601 8 1  1.704 38.218 49.838 
602 8 1 45.466 36.223 48.435 
603 8 1 44.735 34.591 46.502 
604 8 1 43.766 33.242 44.475 
605 8 1 43.702 32.485 42.404 
606 8 1 45.701 33.239 40.988 
607 8 1  3.528 33.966 40.075 
608 8 1  5.794 34.148 39.726 
609 8 1  7.598 32.721 40.910 
610 8 1  8.525 31.055 42.495 
611 8 1  8.887 30.353 44.701 
612 8 1  9.489 30.998 47.174 
613 8 1  9.632 31.823 49.555 
614 8 1  9.780 32.890 51.815 
615 8 1 10.535 34.030 -1.803 
616 8 1  9.460 36.102 -0.612 
617 8 1 10.042 38.654 -0.818 
618 8 1 10.706 41.143 -0.770 
619 8 1 10.666 41.786  1.572 
620 8 1 11.164 41.946  3.850 
621 8 1 12.495 41.762  6.005 
622 8 1 13.921 41.469  8.136 
623 8 1 15.126 40.957 10.372 
624 8 1 16.580 40.703 12.432 
625 8 1 17.047 40.164 14.693 
626 8 1 17.124 40.543 17.034 
627 8 1 17.310 41.812 19.212 
628 8 1 17.805 43.183 21.260 
629 8 1 18.021 44.820 23.237 
630 8 1 18.237 46.577 25.147 
631 8 1 18.918 48.440 26.891 
632 8 1 20.550  0.763 27.841 
633 8 1 22.475  2.041 29.038 
634 8 1 24.643  2.941 28.782 
635 8 1 25.423  5.177 28.097 
636 8 1 26.229  7.086 27.161 
637 8 1 26.470  8.469 25.034 
638 8 1 26.676  9.740 22.772 
639 8 1 27.323 11.068 20.578 
640 8 1 27.196 12.310 18.488 
641 8 1 26.272 13.441 16.394 
642 8 1 25.359 14.173 14.185 
643 8 1 24.420 14.888 11.927 
644 8 1 23.413 15.425  9.573 
645 8 1 22.452 16.094  7.272 
646 8 1 21.718 16.434  4.756 
647 8 1 20.648 14.580  3.340 
648 8 1 19.626 12.612  2.035 
649 8 1 18.309 10.592  1.097 
650 8 1 16.833  8.626  0.397 
651 8 1 15.303  6.641 -0.349 
652 8 1 14.264  4.533 -1.458 
653 8 1 14.464  3.947 51.887 
654 8 1 14.831  3.628 49.430 
655 8 1 15.401  3.173 46.983 
656 8 1 14.458  4.486 45.036 
657 8 1 13.459  5.816 43.071 
658 8 1 15.040  6.838 41.737 
659 8 1 17.198  7.727 41.138 
660 8 1 19.716  8.143 41.203 
661 8 1 22.225  8.304 40.780 
662 8 1 24.500  8.240 39.687 
663 8 1 26.978  8.047 39.005 
664 8 1 29.303  7.495 37.951 
665 8 1 31.242  6.777 36.384 
666 8 1 33.249  5.177 36.927 
667 8 1 32.767  2.619 36.448 
668 8 1 32.118  0.077 36.431 
669 8 1 31.585 47.171 35.909 
670 8 1 30.551 45.211 35.320 
671 8 1 28.787 43.397 35.154 
672 8 1 27.066 41.533 34.991 
673 8 1 26.050 39.391 34.489 
674 8 1 25.735 37.324 32.968 
675 9 1 40.590 30.368  3.558 
676 9 1 42.421 29.032  4.636 
677 9 1 44.534 27.743  5.415 
678 9 1 46.731 26.486  6.068 
679 9 1  4.452 26.280  7.300 
680 9 1  6.153 26.795  9.199 
681 9 1  7.645 26.975 11.309 
682 9 1  9.140 27.587 13.444 
683 9 1  8.300 27.639 15.876 
684 9 1  7.362 27.640 18.224 
685 9 1  6.382 27.596 20.625 
686 9 1  5.732 29.349 22.469 
687 9 1  4.539 30.726 24.237 
688 9 1  2.568 31.265 25.260 
689 9 1 44.337 31.224 25.386 
690 9 1 42.215 32.287 25.161 
691 9 1 40.684 34.156 24.265 
692 9 1 40.997 36.656 24.674 
693 9 1 40.979 39.267 25.063 
694 9 1 41.280 41.769 25.447 
695 9 1 40.980 43.980 24.130 
696 9 1 40.653 46.149 22.634 
697 9 1 39.893 48.025 21.141 
698 9 1 39.209  0.654 19.662 
699 9 1 40.266  2.967 19.971 
700 9 1 41.792  4.997 20.374 
701 9 1 43.798  6.411 20.785 
702 9 1 45.930  7.627 21.274 
703 9 1  3.978  8.760 21.567 
704 9 1  5.932 10.414 21.882 
705 9 1  7.488 11.725 22.989 
706 9 1  9.152 12.531 24.813 
707 9 1 10.844 13.226 26.587 
708 9 1 12.792 13.623 28.231 
709 9 1 14.553 14.108 30.116 
710 9 1 16.433 14.186 31.905 
711 9 1 18.391 14.815 33.149 
712 9 1 20.424 16.354 33.411 
713 9 1 22.137 18.184 33.700 
714 9 1 22.533 19.987 31.842 
715 9 1 22.066 20.838 29.745 
716 9 1 20.297 20.821 27.889 
717 9 1 18.492 20.736 26.037 
718 9 1 16.511 20.396 24.514 
719 9 1 14.406 21.039 23.690 
720 9 1 12.269 21.668 22.961 
721 9 1 12.482 21.549 20.645 
722 9 1 13.815 21.292 18.750 
723 9 1 14.516 19.927 17.142 
724 9 1 14.298 17.684 15.672 
725 9 1 15.250 15.397 16.314 
726 9 1 13.828 13.091 16.731 
727 9 1 12.103 11.734 17.704 
728 9 1 12.478 10.956 20.170 
729 9 1 12.759 10.261 22.615 
730 9 1 13.840 10.631 24.625 
731 9 1 15.726 11.181 26.270 
732 9 1 17.519 12.011 27.993 
733 9 1 19.763 12.688 29.045 
734 9 1 21.863 13.620 30.233 
735 9 1 23.678 14.319 31.745 
736 9 1 25.843 14.590 33.047 
737 9 1 26.914 16.709 34.029 
738 9 1 26.828 18.759 34.963 
739 9 1 26.369 21.095 35.383 
740 9 1 27.060 23.604 35.754 
741 9 1 27.642 26.114 35.918 
742 9 1 28.189 28.733 35.912 
743 9 1 27.444 30.808 36.112 
744 9 1 26.628 32.970 36.273 
745 9 1 27.911 34.766 36.899 
746 9 1 30.548 34.454 36.843 
747 9 1 33.144 34.578 36.821 
748 9 1 35.639 34.066 37.068 
749 9 1 37.375 32.598 36.405 
750 9 1 39.044 31.056 35.526 
751 9 1 38.861 29.565 37.483 
752 9 1 38.112 28.212 39.600 
753 10 1 43.031 23.526 23.090 
754 10 1 42.941 21.026 22.538 
755 10 1 42.703 18.556 21.752 
756 10 1 42.496 16.232 20.708 
757 10 1 40.157 15.051 19.941 
758 10 1 38.104 13.563 19.362 
759 10 1 36.040 12.114 18.711 
760 10 1 34.425 12.326 16.844 
761 10 1 32.538 12.783 15.139 
762 10 1 31.087 14.206 13.969 
763 10 1 29.918 16.276 14.256 
764 10 1 28.532 18.101 15.212 
765 10 1 26.755 19.483 15.710 
766 10 1 24.878 18.169 16.976 
767 10 1 23.950 16.817 18.717 
768 10 1 23.653 15.231 20.388 
769 10 1 23.043 12.905 21.457 
770 10 1 22.136 10.784 20.294 
771 10 1 22.350  8.451 21.471 
772 10 1 22.959  6.437 22.828 
773 10 1 24.045  4.460 24.020 
774 10 1 22.727  2.257 23.964 
775 10 1 21.269  0.263 23.347 
776 10 1 21.706 47.503 22.128 
777 10 1 22.409 45.378 23.362 
778 10 1 23.289 42.971 24.272 
779 10 1 22.004 40.676 23.919 
780 10 1 20.410 38.625 23.289 
781 10 1 18.948 37.770 21.745 
782 10 1 20.192 37.550 19.515 
783 10 1 19.787 36.525 17.276 
784 10 1 19.763 35.140 15.018 
785 10 1 19.845 35.922 12.526 
786 10 1 20.174 37.052 10.292 
787 10 1 20.637 38.109  7.908 
788 10 1 21.277 39.376  5.779 
789 10 1 23.667 39.817  4.980 
790 10 1 26.019 40.507  4.391 
791 10 1 28.354 41.508  4.042 
792 10 1 30.415 42.421  4.751 
793 10 1 32.077 42.811  6.814 
794 10 1 32.948 43.619  8.994 
795 10 1 34.136 42.281 10.868 
796 10 1 35.708 41.446 12.781 
797 10 1 37.935 41.372 13.629 
798 10 1 40.449 41.500 13.325 
799 10 1 42.996 41.743 12.754 
800 10 1 45.073 40.889 13.031 
801 10 1  2.615 39.061 13.646 
802 10 1  4.655 37.643 14.157 
803 10 1  6.902 37.209 14.777 
804 10 1  8.894 38.567 15.823 
805 10 1 10.992 39.733 16.029 
806 10 1 12.837 41.107 15.846 
807 10 1 13.951 43.355 16.190 
808 10 1 14.953 45.519 16.079 
809 10 1 14.242 46.095 13.996 
810 10 1 13.312 45.698 11.886 
811 10 1 11.512 44.846 10.221 
812 10 1  9.640 44.365  8.579 
813 10 1  7.627 44.202  6.958 
814 10 1  5.441 42.912  7.701 
815 10 1  4.324 41.388  9.210 
816 10 1  4.831 38.961  9.380 
817 10 1  5.102 36.378  9.835 
818 10 1  4.711 34.127  9.238 
819 10 1  4.556 32.655  7.384 
820 10 1  5.167 31.293  5.263 
821 10 1  4.786 29.782  3.118 
822 10 1  4.445 27.769  2.003 
823 10 1  4.323 25.712  0.856 
824 10 1  6.029 25.424 -1.143 
825 10 1  6.249 26.355 -3.481 
826 10 1  6.574 26.667 49.796 
827 10 1  6.470 27.280 47.585 
828 10 1  5.450 27.924 45.345 
829 10 1  4.383 27.989 42.957 
830 10 1  3.991 29.031 40.804 
831 11 1 40.888 42.906 31.522 
832 11 1 43.156 44.052 32.054 
833 11 1 45.564 44.909 32.359 
834 11 1  3.645 45.971 32.512 
835 11 1  5.947 46.881 33.293 
836 11 1  8.302 47.668 33.936 
837 11 1 10.746 48.624 34.101 
838 11 1 12.379  0.681 34.828 
839 11 1 13.446  0.608 37.121 
840 11 1 14.877 -0.431 38.699 
841 11 1 13.908 47.843 40.757 
842 11 1 13.304 47.769 43.037 
843 11 1 12.234 49.133 44.937 
844 11 1 11.030  1.110 46.704 
845 11 1 10.005  2.562 48.569 
846 11 1  9.025  4.013 50.398 
847 11 1  8.098  5.270 52.421 
848 11 1  7.217  6.224 -1.226 
849 11 1  6.506  7.370  1.059 
850 11 1  5.555  7.698  3.259 
851 11 1  4.299  7.293  5.482 
852 11 1  3.457  7.223  7.935 
853 11 1  4.934  7.002  9.967 
854 11 1  6.268  6.765 12.163 
855 11 1  5.622  5.086 14.202 
856 11 1  7.416  4.403 15.490 
857 11 1  9.373  2.698 16.299 
858 11 1 10.985  1.824 14.565 
859 11 1 11.552  1.551 12.395 
860 11 1 10.679 48.922 10.984 
861 11 1  8.291 48.585 10.171 
862 11 1  6.128 47.716  9.091 
863 11 1  3.865 47.200  8.040 
864 11 1 45.788 47.589  7.038 
865 11 1 43.524 48.538  6.372 
866 11 1 42.786  0.093  4.108 
867 11 1 42.485  1.355  2.254 
868 11 1 41.617  3.694  2.767 
869 11 1 40.161  5.577  2.912 
870 11 1 38.016  6.861  3.198 
871 11 1 36.323  7.387  1.344 
872 11 1 35.229  8.109 -0.639 
873 11 1 34.994  6.848 -2.767 
874 11 1 34.095  5.363 51.491 
875 11 1 32.688  3.361 50.740 
876 11 1 31.253  1.272 50.072 
877 11 1 28.833  0.968 50.565 
878 11 1 26.321  0.946 50.895 
879 11 1 24.037  1.306 50.642 
880 11 1 21.645  1.564 50.475 
881 11 1 19.285  2.039 51.396 
882 11 1 18.695  1.930 -1.817 
883 11 1 18.964  2.730  0.318 
884 11 1 19.784  4.237  2.295 
885 11 1 20.673  4.378  4.330 
886 11 1 21.240  4.281  6.574 
887 11 1 21.276  4.081  8.946 
888 11 1 21.759  2.583 10.931 
889 11 1 22.264  0.836 12.769 
890 11 1 23.103 47.752 12.836 
891 11 1 24.247 45.461 12.992 
892 11 1 25.499 43.231 13.330 
893 11 1 26.656 41.147 13.885 
894 11 1 28.115 39.104 14.711 
895 11 1 29.899 37.660 14.582 
896 11 1 32.128 38.183 15.629 
897 11 1 34.380 38.275 16.823 
898 11 1 36.530 38.244 18.105 
899 11 1 38.323 40.002 18.517 
900 11 1 40.030 41.601 19.570 
901 11 1 41.556 43.397 19.577 
902 11 1 43.539 44.781 19.823 
903 11 1 45.654 45.920 20.904 
904 11 1  3.708 46.713 21.735 
905 11 1  5.915 47.492 21.429 
906 11 1  7.912 48.743 20.720 
907 11 1  9.685  1.146 20.643 
908 11 1 10.974  3.155 21.404 
909 12 1 20.012 42.843  9.047 
910 12 1 19.400 45.398  8.635 
911 12 1 18.801 47.870  8.006 
912 12 1 17.968  0.738  7.168 
913 12 1 17.140  0.491  4.936 
914 12 1 17.062 -0.713  2.776 
915 12 1 17.344 47.330  0.646 
916 12 1 19.208 46.500 -0.689 
917 12 1 21.159 47.000 -2.251 
918 12 1 23.385 47.076 -2.948 
919 12 1 24.299 44.808 52.063 
920 12 1 25.355 42.645 51.424 
921 12 1 26.407 40.469 50.802 
922 12 1 27.140 38.722 49.305 
923 12 1 27.774 37.644 47.076 
924 12 1 28.696 36.653 44.993 
925 12 1 28.560 35.730 42.826 
926 12 1 27.952 34.085 41.385 
927 12 1 28.154 31.628 40.838 
928 12 1 27.849 29.215 40.504 
929 12 1 26.994 26.794 40.582 
930 12 1 26.960 25.321 42.690 
931 12 1 25.723 26.142 44.428 
932 12 1 27.162 26.968 46.377 
933 12 1 28.762 27.761 48.169 
934 12 1 30.423 28.666 49.991 
935 12 1 32.371 29.127 51.625 
936 12 1 33.501 30.989 50.713 
937 12 1 34.782 32.792 49.860 
938 12 1 35.742 35.165 50.388 
939 12 1 36.522 37.333 51.765 
940 12 1 37.015 39.342 53.128 
941 12 1 36.862 41.530 -2.018 
942 12 1 35.779 43.880 -2.361 
943 12 1 35.919 46.129 -2.973 
944 12 1 37.079 48.374 52.264 
945 12 1 37.934  0.718 50.747 
946 12 1 37.823  2.387 49.110 
947 12 1 37.073  4.346 47.909 
948 12 1 36.635  6.780 47.497 
949 12 1 35.676  9.084 47.378 
950 12 1 34.135 10.597 46.411 
951 12 1 32.419 12.025 45.606 
952 12 1 30.438 13.630 45.713 
953 12 1 28.321 15.109 46.143 
954 12 1 26.469 16.865 46.462 
955 12 1 24.393 17.797 45.989 
956 12 1 22.182 17.965 44.747 
957 12 1 19.724 17.648 43.825 
958 12 1 17.253 17.103 43.176 
959 12 1 15.154 17.083 44.053 
960 12 1 13.509 17.809 46.016 
961 12 1 12.047 18.621 47.990 
962 12 1 10.556 20.152 48.868 
963 12 1  8.722 21.917 48.814 
964 12 1  6.968 22.311 46.970 
965 12 1  4.745 22.700 45.554 
966 12 1  2.631 22.672 44.193 
967 12 1 44.488 22.791 43.259 
968 12 1 41.954 22.771 42.712 
969 12 1 40.234 21.361 42.326 
970 12 1 39.304 19.035 41.905 
971 12 1 40.296 16.640 41.881 
972 12 1 41.437 14.424 42.096 
973 12 1 42.875 12.209 42.118 
974 12 1 44.042 10.434 41.057 
975 12 1 45.795  9.399 40.036 
976 12 1  3.953  9.014 39.339 
977 12 1  5.596  8.313 37.910 
978 12 1  6.555  7.439 35.679 
979 12 1  7.745  6.935 33.489 
980 12 1  9.062  6.749 31.369 
981 12 1  9.883  7.065 28.989 
982 12 1 10.165  7.383 26.377 
983 12 1  8.118  7.815 24.908 
984 12 1  6.926  6.138 23.341 
985 12 1  5.925  4.421 21.706 
986 12 1  5.294  2.600 19.984 