LAMMPS data file generated by aa2cg.

2000 atoms
1 atom types
1975 bonds
1 bond types
1950 angles
1 angle types
1925 dihedrals
1 dihedral types

 0.000 54.789 xlo xhi
 0.000 47.061 ylo yhi
 0.000 47.904 zlo zhi

Masses

1 24.022

Atoms # molecular

1 1 1 20.456 17.717 46.647 
2 1 1 18.365 13.211 41.111 
3 2 1  0.829  7.265 33.990 
4 2 1 27.725 21.777 12.534 
5 3 1 19.018 21.325 42.271 
6 3 1 -0.121 42.191 30.482 
7 4 1 36.269  5.321  9.266 
8 4 1 32.392 42.055  1.459 
9 5 1 12.942 24.294 13.339 
10 5 1 47.703  2.707 41.746 
11 6 1 29.200 47.737 15.731 
12 6 1 50.628 22.633 32.828 
13 7 1 41.543 16.032  9.761 
14 7 1 45.099 40.557 47.284 
15 8 1 -1.690  6.871 27.130 
16 8 1 15.514 29.586 13.133 
17 9 1 39.418 47.514  9.640 
18 9 1 17.352  4.643 10.132 
19 10 1 -2.290 27.110 36.481 
20 10 1 -2.507 47.960 45.239 
21 11 1  2.843 29.095 36.019 
22 11 1 47.805 20.352 19.389 
23 12 1 24.146 27.501 28.298 
24 12 1  4.783 27.531 30.966 
25 13 1 11.863  4.587 10.410 
26 13 1  1.352 24.821 19.677 
27 14 1 32.490 32.568 18.917 
28 14 1 30.743 23.798 42.962 
29 15 1 -2.056 12.236 30.977 
30 15 1 40.959  8.589 17.944 
31 16 1 36.956 22.846  6.919 
32 16 1 17.814 18.991 37.837 
33 17 1 49.148  4.907 35.649 
34 17 1 -0.961 19.598 12.106 
35 18 1  8.748  2.071 14.230 
36 18 1 34.954 42.509 41.453 
37 19 1 48.658 32.719  7.907 
38 19 1 12.760 27.724 31.439 
39 20 1 21.301 42.924  7.021 
40 20 1 30.530 27.454 31.605 
41 21 1 20.759 40.695 10.945 
42 21 1 14.948 13.964 30.720 
43 22 1 31.685  5.214 41.165 
44 22 1 36.434  7.621 30.460 
45 23 1 42.446 37.731 39.563 
46 23 1 38.526  5.529 20.680 
47 24 1 17.206  9.838 44.678 
48 24 1  5.652  6.365 20.952 
49 25 1 29.278 17.795 34.742 
50 25 1 27.222 20.904 23.360 
51 1 1 21.610 17.591 48.858 
52 1 1 23.004 17.583  3.117 
53 1 1 25.286 16.410  3.411 
54 1 1 27.165 14.989  2.928 
55 1 1 28.625 13.455  1.469 
56 1 1 30.130 12.108 47.681 
57 1 1 32.183 11.509 46.766 
58 1 1 34.425 11.141 47.012 
59 1 1 36.350  9.974 48.243 
60 1 1 38.019 11.135  1.318 
61 1 1 40.009 12.840  1.348 
62 1 1 41.059 14.063 47.225 
63 1 1 42.225 15.220 45.252 
64 1 1 42.308 16.864 43.562 
65 1 1 41.421 18.628 42.010 
66 1 1 39.391 17.848 41.186 
67 1 1 38.349 15.568 40.433 
68 1 1 37.156 13.483 39.478 
69 1 1 36.192 11.317 38.555 
70 1 1 35.253  9.315 37.360 
71 1 1 33.783  7.568 36.257 
72 1 1 32.225  5.713 35.412 
73 1 1 31.022  5.432 33.137 
74 1 1 29.158  5.396 31.220 
75 1 1 26.988  5.876 29.899 
76 1 1 25.631  4.082 28.563 
77 1 1 25.252  2.139 27.296 
78 1 1 26.205  2.350 24.868 
79 1 1 26.188 47.901 22.676 
80 1 1 26.216 46.543 20.535 
81 1 1 26.374 44.878 18.648 
82 1 1 26.738 43.220 16.671 
83 1 1 25.992 41.642 15.105 
84 1 1 24.982 43.187 13.250 
85 1 1 24.016 45.041 11.706 
86 1 1 22.315 46.477 10.381 
87 1 1 20.445 47.519  9.047 
88 1 1 19.336 48.476  7.228 
89 1 1 19.779  2.140  4.848 
90 1 1 20.140  2.805  2.399 
91 1 1 22.145  4.225  1.520 
92 1 1 21.635  6.562 49.227 
93 1 1 20.383  8.613  2.466 
94 1 1 21.360 10.039  4.455 
95 1 1 22.806 11.036  6.019 
96 1 1 25.097 12.054  6.503 
97 1 1 27.574 12.606  6.874 
98 1 1 29.334 12.988  8.307 
99 1 1 30.445 13.149 10.562 
100 1 1 31.590 12.317 12.720 
101 1 1 32.414 12.382 14.972 
102 1 1 34.141 13.191 16.357 
103 1 1 34.385 15.397 15.610 
104 1 1 34.508 17.047 17.683 
105 1 1 34.921 18.407 19.695 
106 1 1 35.633 19.158 22.109 
107 1 1 36.533 19.734 24.396 
108 1 1 37.665 20.106 26.689 
109 1 1 39.173 20.689 28.678 
110 1 1 40.941 21.205 30.557 
111 1 1 41.526 19.953 32.854 
112 1 1 42.357 18.716 35.042 
113 1 1 42.848 16.799 36.220 
114 1 1 43.563 14.907 37.352 
115 1 1 44.077 13.582 39.397 
116 1 1 44.580 12.032 41.383 
117 1 1 46.318 12.954 42.684 
118 1 1 48.414 14.206 43.396 
119 1 1 50.353 15.604 44.491 
120 1 1 52.133 16.642 42.996 
121 1 1  0.008 16.612 43.109 
122 1 1  2.587 16.521 43.169 
123 1 1  5.224 16.548 43.060 
124 1 1  7.696 16.472 42.562 
125 1 1  9.981 16.241 41.553 
126 1 1 11.990 15.279 40.846 
127 1 1 13.752 13.403 40.897 
128 1 1 15.866 12.614 40.902 
129 2 1  1.026  7.069 31.601 
130 2 1  2.300  6.912 29.388 
131 2 1  3.240  5.831 27.282 
132 2 1  5.310  6.690 25.989 
133 2 1  7.285  7.578 24.642 
134 2 1  8.686  8.311 22.613 
135 2 1  9.428  9.218 20.340 
136 2 1  9.693 10.963 18.947 
137 2 1  7.437 12.013 18.250 
138 2 1  5.645 12.296 16.865 
139 2 1  4.275 12.109 14.805 
140 2 1  2.985 11.560 12.667 
141 2 1  1.822 11.515 10.315 
142 2 1  0.524 11.471  8.136 
143 2 1 -0.328 11.141  5.792 
144 2 1 -1.061  9.988  3.952 
145 2 1 -2.356  7.972  5.016 
146 2 1 -1.489  5.712  5.980 
147 2 1  0.038  3.956  5.991 
148 2 1  1.797  2.224  6.108 
149 2 1  2.692 46.957  6.604 
150 2 1  3.701 44.847  5.917 
151 2 1  5.020 43.115  4.539 
152 2 1  6.700 41.502  3.331 
153 2 1  8.488 40.094  2.127 
154 2 1 10.519 38.990  1.064 
155 2 1 11.990 39.244 46.929 
156 2 1 13.309 39.012 44.686 
157 2 1 12.380 38.185 42.360 
158 2 1 11.610 35.740 41.799 
159 2 1 11.289 33.325 41.446 
160 2 1 11.822 30.972 41.512 
161 2 1 13.256 28.752 41.676 
162 2 1 15.694 28.520 42.528 
163 2 1 18.232 28.432 43.067 
164 2 1 20.855 28.283 43.283 
165 2 1 23.441 28.290 43.246 
166 2 1 25.981 28.416 43.219 
167 2 1 28.015 28.803 44.138 
168 2 1 29.505 29.964 45.489 
169 2 1 31.099 32.034 45.467 
170 2 1 32.726 34.050 45.772 
171 2 1 31.334 35.977 45.446 
172 2 1 30.487 37.961 44.848 
173 2 1 30.902 40.530 44.792 
174 2 1 31.016 41.064 42.399 
175 2 1 31.343 41.110 39.832 
176 2 1 31.879 40.983 37.326 
177 2 1 33.281 40.769 35.205 
178 2 1 33.145 39.496 32.950 
179 2 1 33.476 38.009 30.819 
180 2 1 33.950 38.582 28.353 
181 2 1 36.215 39.027 27.171 
182 2 1 38.167 39.802 25.755 
183 2 1 39.785 41.027 24.296 
184 2 1 41.333 42.186 22.657 
185 2 1 43.059 43.550 21.621 
186 2 1 45.041 45.213 21.374 
187 2 1 46.916 44.230 22.337 
188 2 1 48.328 42.151 22.963 
189 2 1 48.180 39.852 21.856 
190 2 1 50.184 38.867 20.658 
191 2 1 50.415 36.775 19.266 
192 2 1 50.840 34.375 18.265 
193 2 1 -1.738 33.286 17.458 
194 2 1 -1.955 30.818 17.773 
195 2 1 -2.738 28.369 18.016 
196 2 1 50.431 26.430 18.526 
197 2 1 48.359 25.117 19.347 
198 2 1 45.944 25.110 18.452 
199 2 1 43.748 25.216 16.999 
200 2 1 41.838 25.420 15.423 
201 2 1 39.685 25.388 14.041 
202 2 1 37.615 25.015 12.694 
203 2 1 35.589 24.500 11.254 
204 2 1 33.587 23.977  9.722 
205 2 1 31.213 23.472  8.975 
206 2 1 29.438 22.513 10.726 
207 3 1 17.072 20.115 42.742 
208 3 1 16.371 17.720 43.613 
209 3 1 15.758 15.401 44.668 
210 3 1 14.232 13.784 45.328 
211 3 1 11.954 12.604 45.469 
212 3 1  9.597 11.713 45.043 
213 3 1  7.180 11.332 44.175 
214 3 1  5.070 12.020 45.532 
215 3 1  2.988 12.711 46.842 
216 3 1  0.731 13.580 47.804 
217 3 1 -1.669 14.146  0.642 
218 3 1 50.646 14.475  1.513 
219 3 1 48.947 16.380  0.891 
220 3 1 46.388 16.240  1.103 
221 3 1 44.383 15.705  2.462 
222 3 1 44.787 15.094  4.937 
223 3 1 45.221 15.876  6.932 
224 3 1 46.709 17.149  8.212 
225 3 1 48.926 18.123  7.284 
226 3 1 51.216 18.245  6.128 
227 3 1 -1.448 18.245  4.536 
228 3 1  0.629 16.709  4.436 
229 3 1  2.781 15.351  4.381 
230 3 1  4.980 13.948  4.699 
231 3 1  5.929 14.327  6.811 
232 3 1  5.195 15.149  9.140 
233 3 1  4.326 16.159 11.273 
234 3 1  3.018 17.404 13.118 
235 3 1  2.327 16.276 15.457 
236 3 1 -0.038 15.388 16.023 
237 3 1 -2.017 16.245 17.464 
238 3 1 50.389 15.510 17.896 
239 3 1 48.249 14.421 17.387 
240 3 1 48.271 13.698 14.900 
241 3 1 48.081 12.856 12.488 
242 3 1 45.924 12.371 11.214 
243 3 1 43.967 11.934  9.551 
244 3 1 41.911 12.031  7.948 
245 3 1 41.840 11.216  5.428 
246 3 1 42.961 10.681  3.356 
247 3 1 45.170 10.225  2.131 
248 3 1 47.413  9.529  1.160 
249 3 1 47.699 10.511 46.833 
250 3 1 47.174  8.722 44.990 
251 3 1 44.927  7.825 43.995 
252 3 1 43.066  6.184 43.366 
253 3 1 41.178  4.509 42.934 
254 3 1 39.503  2.946 43.709 
255 3 1 37.859  1.889 45.421 
256 3 1 36.450  1.092 47.399 
257 3 1 34.503 48.126  0.905 
258 3 1 32.613 47.531  1.972 
259 3 1 31.046 46.460  3.792 
260 3 1 29.289 45.472  5.406 
261 3 1 27.596 44.326  7.011 
262 3 1 26.005 42.823  8.429 
263 3 1 26.183 40.692  7.500 
264 3 1 25.779 38.847  5.797 
265 3 1 24.922 37.013  4.375 
266 3 1 22.755 36.554  3.224 
267 3 1 20.727 35.460  2.851 
268 3 1 18.785 33.978  3.426 
269 3 1 18.349 31.456  3.106 
270 3 1 17.409 29.578  2.097 
271 3 1 15.941 28.500 48.175 
272 3 1 13.964 29.587 46.950 
273 3 1 12.056 31.127 46.121 
274 3 1 10.278 33.071 45.796 
275 3 1  8.777 35.274 45.465 
276 3 1  7.636 37.418 44.782 
277 3 1  7.691 38.319 42.351 
278 3 1  7.877 39.568 40.194 
279 3 1  6.713 41.681 39.185 
280 3 1  5.507 43.907 38.259 
281 3 1  6.046 44.824 35.857 
282 3 1  4.481 46.060 34.132 
283 3 1  3.521 45.001 31.954 
284 3 1  1.934 43.687 30.765 
285 4 1 37.570  3.748  7.811 
286 4 1 38.694  2.206  6.056 
287 4 1 39.751  1.046  4.081 
288 4 1 40.436 47.280  1.748 
289 4 1 40.850 44.802  1.039 
290 4 1 41.441 42.689 49.281 
291 4 1 41.687 40.471  1.801 
292 4 1 41.986 37.926  1.266 
293 4 1 42.466 35.863  1.987 
294 4 1 41.004 33.919  2.475 
295 4 1 41.787 31.703  3.568 
296 4 1 40.875 30.429  5.303 
297 4 1 38.368 29.934  5.351 
298 4 1 36.461 28.637  5.196 
299 4 1 35.082 26.510  4.819 
300 4 1 33.111 25.461  4.179 
301 4 1 30.731 25.201  3.268 
302 4 1 28.689 24.918  1.804 
303 4 1 26.658 24.101  0.500 
304 4 1 24.980 23.111 46.638 
305 4 1 24.001 21.549 44.766 
306 4 1 23.384 19.880 43.033 
307 4 1 22.575 18.239 41.193 
308 4 1 21.713 16.590 39.518 
309 4 1 21.249 14.456 38.880 
310 4 1 23.056 13.253 37.991 
311 4 1 24.821 13.125 36.068 
312 4 1 26.518 13.085 34.205 
313 4 1 27.983 13.660 32.071 
314 4 1 29.288 13.742 29.751 
315 4 1 28.644 12.604 27.582 
316 4 1 28.027 11.702 25.260 
317 4 1 27.570 10.584 23.019 
318 4 1 26.918  9.500 20.754 
319 4 1 26.054  7.776 19.552 
320 4 1 25.317  5.281 19.318 
321 4 1 23.625  3.699 19.055 
322 4 1 21.345  2.949 18.486 
323 4 1 19.187  4.216 19.311 
324 4 1 17.870  5.517 20.679 
325 4 1 17.676  7.271 22.659 
326 4 1 17.228  8.955 24.632 
327 4 1 19.125 10.217 25.849 
328 4 1 19.631 11.119 28.264 
329 4 1 19.400 12.143 30.616 
330 4 1 21.205 13.515 31.779 
331 4 1 20.873 15.142 33.866 
332 4 1 20.027 17.318 33.542 
333 4 1 19.134 18.724 31.968 
334 4 1 19.131 17.596 29.661 
335 4 1 19.015 16.368 27.460 
336 4 1 19.025 14.951 25.390 
337 4 1 18.382 13.920 23.193 
338 4 1 17.947 13.117 20.833 
339 4 1 17.581 12.695 18.349 
340 4 1 17.378 12.217 15.784 
341 4 1 17.086 11.465 13.383 
342 4 1 18.696  9.771 12.343 
343 4 1 18.755  8.762  9.977 
344 4 1 18.142  8.696  7.713 
345 4 1 16.905  9.533  5.628 
346 4 1 15.713 10.587  3.572 
347 4 1 16.319 12.594  2.036 
348 4 1 17.562 14.287  1.179 
349 4 1 19.140 13.290 47.363 
350 4 1 21.438 13.041 48.327 
351 4 1 23.329 12.402  1.841 
352 4 1 24.477 10.574 48.338 
353 4 1 25.731  8.812 46.985 
354 4 1 26.772  6.603 46.009 
355 4 1 27.113  4.425 47.283 
356 4 1 27.100  2.904 49.115 
357 4 1 26.287  2.047  3.438 
358 4 1 24.868 47.699  4.591 
359 4 1 24.196 45.443  4.219 
360 4 1 25.147 43.091  3.619 
361 4 1 27.517 42.679  2.796 
362 4 1 29.955 42.330  2.041 
363 5 1 10.747 24.109 12.098 
364 5 1  8.626 24.053 10.660 
365 5 1  6.282 23.688  9.574 
366 5 1  3.868 23.626  8.914 
367 5 1  1.408 23.875  8.379 
368 5 1 -0.918 24.918  7.796 
369 5 1 -2.581 24.058  6.072 
370 5 1 50.199 25.416  4.999 
371 5 1 49.124 27.297  4.152 
372 5 1 48.156 29.016  3.190 
373 5 1 46.315 29.971  1.599 
374 5 1 44.532 31.000 47.953 
375 5 1 42.639 31.952 46.383 
376 5 1 40.677 32.696 44.914 
377 5 1 38.549 33.572 43.968 
378 5 1 36.405 34.589 43.144 
379 5 1 34.370 35.691 41.862 
380 5 1 32.690 36.855 40.259 
381 5 1 30.444 36.586 40.506 
382 5 1 28.139 36.690 40.959 
383 5 1 26.631 38.320 39.581 
384 5 1 24.359 37.618 39.338 
385 5 1 21.964 37.039 40.086 
386 5 1 20.206 35.429 40.410 
387 5 1 21.217 33.979 41.900 
388 5 1 23.724 33.302 41.550 
389 5 1 26.266 32.844 41.323 
390 5 1 28.868 32.671 41.255 
391 5 1 31.324 31.879 41.052 
392 5 1 33.817 31.129 41.096 
393 5 1 36.294 30.247 41.163 
394 5 1 38.696 29.497 41.122 
395 5 1 41.100 28.236 41.075 
396 5 1 42.435 26.756 39.917 
397 5 1 43.155 24.975 38.211 
398 5 1 43.335 22.569 38.385 
399 5 1 44.467 20.318 39.123 
400 5 1 45.828 18.177 39.755 
401 5 1 47.758 16.786 38.886 
402 5 1 48.882 14.708 37.773 
403 5 1 47.771 12.460 37.317 
404 5 1 46.720 10.577 36.191 
405 5 1 48.016  9.849 34.054 
406 5 1 49.547  8.772 32.671 
407 5 1 50.827  6.809 31.801 
408 5 1 52.247  4.914 30.938 
409 5 1 -0.490  3.493 30.463 
410 5 1  0.540  1.561 29.670 
411 5 1  0.449 46.560 28.165 
412 5 1 -1.626 45.236 27.121 
413 5 1 50.978 43.916 26.887 
414 5 1 50.798 41.386 26.198 
415 5 1 51.846 39.208 26.114 
416 5 1 -2.328 37.716 28.079 
417 5 1 51.259 35.390 27.896 
418 5 1 -2.442 33.010 27.555 
419 5 1 -1.173 30.682 27.521 
420 5 1 -0.008 29.111 26.356 
421 5 1 -0.748 28.427 23.947 
422 5 1 -0.932 30.478 22.940 
423 5 1 -2.048 32.762 22.448 
424 5 1 50.655 33.683 23.678 
425 5 1 48.785 34.657 25.127 
426 5 1 47.357 35.788 26.969 
427 5 1 46.611 36.959 29.137 
428 5 1 45.622 38.143 31.191 
429 5 1 44.466 39.577 33.035 
430 5 1 44.532 40.504 35.226 
431 5 1 45.630 40.919 37.501 
432 5 1 47.868 39.972 38.509 
433 5 1 50.086 39.288 39.587 
434 5 1 52.201 40.774 39.622 
435 5 1 -0.292 41.981 39.493 
436 5 1  1.298 43.406 38.553 
437 5 1  0.506 45.861 38.476 
438 5 1 -0.944 47.513 38.926 
439 5 1 -2.982  1.707 39.947 
440 5 1 50.072  3.352 40.829 
441 6 1 26.848 48.678 15.178 
442 6 1 24.619  2.295 14.229 
443 6 1 22.332  2.069 13.786 
444 6 1 19.884  1.258 13.944 
445 6 1 17.375 47.514 14.298 
446 6 1 16.518 46.084 16.353 
447 6 1 16.223 44.581 18.411 
448 6 1 14.355 43.102 19.128 
449 6 1 13.352 40.999 19.938 
450 6 1 12.833 38.555 20.670 
451 6 1 12.272 36.163 21.413 
452 6 1 11.851 33.793 22.282 
453 6 1 11.630 31.388 23.251 
454 6 1 11.224 28.983 24.181 
455 6 1 10.667 26.545 24.783 
456 6 1 10.486 25.487 27.137 
457 6 1 10.659 24.432 29.450 
458 6 1 10.816 23.290 31.761 
459 6 1 10.415 22.185 33.983 
460 6 1 10.412 21.324 36.287 
461 6 1 12.904 20.866 36.979 
462 6 1 14.426 22.760 37.827 
463 6 1 15.863 24.794 38.706 
464 6 1 18.378 24.840 39.374 
465 6 1 20.823 25.108 40.059 
466 6 1 23.105 24.747 39.952 
467 6 1 25.484 23.837 39.387 
468 6 1 27.823 22.694 39.579 
469 6 1 28.801 20.438 40.567 
470 6 1 29.103 18.036 41.454 
471 6 1 29.279 15.617 42.317 
472 6 1 31.379 14.107 42.785 
473 6 1 32.482 12.309 41.218 
474 6 1 33.721 10.194 42.043 
475 6 1 34.384  8.281 43.371 
476 6 1 34.417  6.336 45.069 
477 6 1 33.061  5.754 47.296 
478 6 1 31.900  5.159  1.594 
479 6 1 31.021  4.443  3.969 
480 6 1 30.221  3.483  6.195 
481 6 1 30.455  3.193  8.573 
482 6 1 31.041  3.549 11.018 
483 6 1 32.257  3.631 13.361 
484 6 1 32.917  4.170 15.774 
485 6 1 32.804  4.068 18.057 
486 6 1 31.866  3.852 20.411 
487 6 1 29.429  3.974 21.293 
488 6 1 28.870  4.987 23.593 
489 6 1 29.346  5.952 25.536 
490 6 1 30.676  7.261 27.233 
491 6 1 31.683  8.860 28.952 
492 6 1 32.714 10.425 30.814 
493 6 1 33.637 11.703 32.840 
494 6 1 34.696 14.111 33.275 
495 6 1 36.334 14.656 35.111 
496 6 1 37.602 16.938 35.481 
497 6 1 38.169 19.114 35.972 
498 6 1 38.167 21.343 37.067 
499 6 1 38.609 23.523 38.485 
500 6 1 37.065 24.678 39.633 
501 6 1 34.944 26.108 39.892 
502 6 1 32.596 27.001 40.450 
503 6 1 30.587 26.745 38.786 
504 6 1 29.225 28.126 37.092 
505 6 1 26.669 28.677 37.421 
506 6 1 24.283 29.352 38.038 
507 6 1 21.899 29.994 38.895 
508 6 1 19.651 30.664 37.847 
509 6 1 17.648 29.319 36.942 
510 6 1 15.676 28.043 35.953 
511 6 1 13.490 27.583 37.151 
512 6 1 11.434 26.409 38.119 
513 6 1  9.083 25.843 37.183 
514 6 1  6.663 25.719 36.245 
515 6 1  5.589 23.460 35.628 
516 6 1  3.331 23.197 34.439 
517 6 1  0.770 22.823 34.085 
518 6 1 -1.732 22.673 33.500 
519 7 1 42.838 16.132 12.020 
520 7 1 43.798 16.105 14.453 
521 7 1 44.551 16.140 16.913 
522 7 1 45.338 16.336 19.304 
523 7 1 46.509 16.673 21.542 
524 7 1 48.365 16.152 22.795 
525 7 1 50.269 17.584 22.037 
526 7 1 52.037 19.157 21.195 
527 7 1 -1.918 21.273 20.644 
528 7 1 -2.332 21.816 18.465 
529 7 1 -2.719 21.873 16.329 
530 7 1 50.591 22.696 14.375 
531 7 1 49.091 23.002 12.344 
532 7 1 48.541 22.938 10.109 
533 7 1 47.790 22.484  7.926 
534 7 1 45.952 22.465  6.009 
535 7 1 44.218 20.762  5.357 
536 7 1 42.355 20.756  6.632 
537 7 1 41.474 21.108  8.942 
538 7 1 43.022 20.678 10.588 
539 7 1 44.682 20.298 12.241 
540 7 1 44.013 20.606 14.734 
541 7 1 43.342 20.771 17.152 
542 7 1 42.384 20.999 19.522 
543 7 1 41.287 21.242 21.831 
544 7 1 40.779 23.035 23.483 
545 7 1 39.710 24.957 24.205 
546 7 1 37.271 25.295 23.351 
547 7 1 34.890 25.992 22.563 
548 7 1 32.491 26.317 21.724 
549 7 1 30.114 26.775 20.764 
550 7 1 28.041 27.703 20.794 
551 7 1 25.987 28.758 21.809 
552 7 1 24.099 29.911 23.161 
553 7 1 22.205 30.500 24.849 
554 7 1 20.336 30.988 26.565 
555 7 1 18.542 31.542 28.452 
556 7 1 16.825 32.235 30.160 
557 7 1 16.198 33.375 32.009 
558 7 1 16.333 34.608 34.273 
559 7 1 18.428 35.105 35.820 
560 7 1 20.672 34.935 36.385 
561 7 1 23.025 33.985 36.155 
562 7 1 25.504 33.312 36.211 
563 7 1 27.945 32.588 36.393 
564 7 1 30.195 32.701 36.894 
565 7 1 31.175 34.861 35.758 
566 7 1 29.551 36.464 35.442 
567 7 1 27.345 37.448 34.419 
568 7 1 24.815 38.017 34.075 
569 7 1 22.295 38.661 33.696 
570 7 1 20.189 37.876 32.182 
571 7 1 17.777 37.317 31.371 
572 7 1 15.388 37.395 30.413 
573 7 1 12.950 37.834 29.815 
574 7 1 10.434 38.455 29.635 
575 7 1  7.915 39.123 29.755 
576 7 1  7.281 41.537 29.231 
577 7 1  7.614 43.728 29.733 
578 7 1  8.378 45.724 31.119 
579 7 1  8.751 47.782 32.628 
580 7 1  8.736  2.537 34.508 
581 7 1  8.823  4.096 36.480 
582 7 1  9.080  5.279 38.820 
583 7 1  9.042  6.685 40.976 
584 7 1  7.096  7.505 42.402 
585 7 1  5.875  6.750 44.573 
586 7 1  3.677  7.643 45.609 
587 7 1  1.578  8.640 46.301 
588 7 1 -0.649  9.520 46.341 
589 7 1 -2.616  7.975 45.804 
590 7 1 50.850  5.829 45.396 
591 7 1 49.030  4.474 45.475 
592 7 1 46.474  4.118 46.054 
593 7 1 44.534  2.746 46.066 
594 7 1 42.929  0.722 45.637 
595 7 1 43.657 45.321 45.871 
596 7 1 44.596 43.034 46.395 
597 8 1 50.949  8.206 27.119 
598 8 1 48.899  9.589 27.301 
599 8 1 46.931 11.124 27.383 
600 8 1 45.026 12.069 26.438 
601 8 1 43.642 12.791 24.377 
602 8 1 42.273 13.202 22.221 
603 8 1 40.784 13.454 20.126 
604 8 1 39.884 14.102 17.790 
605 8 1 39.395 15.409 15.898 
606 8 1 39.061 17.562 14.493 
607 8 1 38.793 19.278 15.955 
608 8 1 38.016 21.390 16.904 
609 8 1 37.829 23.886 17.530 
610 8 1 38.107 26.262 18.563 
611 8 1 38.352 28.495 19.879 
612 8 1 36.536 30.211 20.601 
613 8 1 35.178 30.984 22.441 
614 8 1 32.911 31.053 23.812 
615 8 1 30.586 31.293 24.985 
616 8 1 28.398 31.110 26.398 
617 8 1 26.367 31.806 27.456 
618 8 1 24.479 33.337 28.286 
619 8 1 22.846 33.836 29.929 
620 8 1 21.071 33.384 31.768 
621 8 1 20.685 31.423 33.313 
622 8 1 19.291 29.323 32.895 
623 8 1 18.109 27.066 32.571 
624 8 1 17.057 24.711 32.410 
625 8 1 15.936 22.420 32.175 
626 8 1 14.450 20.247 32.101 
627 8 1 12.844 18.255 32.048 
628 8 1 11.437 16.109 31.996 
629 8 1 10.633 13.716 31.746 
630 8 1  9.098 11.954 32.855 
631 8 1  7.328 10.288 33.797 
632 8 1  5.602  8.531 34.688 
633 8 1  5.495  7.126 36.852 
634 8 1  3.441  6.696 37.618 
635 8 1  3.096  8.078 39.818 
636 8 1  3.382  9.892 41.622 
637 8 1  1.504 11.050 42.462 
638 8 1 -0.867 11.360 42.290 
639 8 1 -3.280 11.815 41.467 
640 8 1 49.909  9.898 40.836 
641 8 1 48.001  8.180 40.548 
642 8 1 46.033  6.749 39.697 
643 8 1 44.871  7.065 37.437 
644 8 1 43.863  7.850 35.196 
645 8 1 42.927  8.528 32.899 
646 8 1 42.178  8.847 30.585 
647 8 1 41.257  9.196 28.240 
648 8 1 40.642  9.920 25.878 
649 8 1 38.694  9.665 24.413 
650 8 1 36.682  8.725 23.499 
651 8 1 34.476  7.334 23.792 
652 8 1 34.758  5.004 24.353 
653 8 1 35.261  2.492 24.091 
654 8 1 35.837 47.110 23.675 
655 8 1 36.081 44.594 23.153 
656 8 1 35.661 42.249 23.294 
657 8 1 33.154 41.772 22.576 
658 8 1 30.591 41.126 22.026 
659 8 1 28.087 40.622 21.266 
660 8 1 25.763 40.145 20.078 
661 8 1 23.808 39.518 18.570 
662 8 1 22.071 38.246 17.206 
663 8 1 20.662 36.611 15.887 
664 8 1 18.914 35.146 14.597 
665 8 1 17.233 33.619 13.216 
666 8 1 16.196 35.004 11.690 
667 8 1 16.248 36.931  9.972 
668 8 1 16.108 38.979  8.323 
669 8 1 15.597 38.805  5.980 
670 8 1 14.675 36.659  5.858 
671 8 1 15.045 34.154  6.284 
672 8 1 15.654 31.844  7.339 
673 8 1 15.569 30.099  8.867 
674 8 1 14.578 29.058 11.070 
675 9 1 39.603 44.954  9.419 
676 9 1 38.963 42.773 10.020 
677 9 1 36.751 41.795  9.214 
678 9 1 35.800 39.446  9.465 
679 9 1 34.751 37.137  9.714 
680 9 1 32.312 36.595  9.015 
681 9 1 31.304 34.220  8.803 
682 9 1 30.197 31.981  9.342 
683 9 1 29.467 29.786 10.382 
684 9 1 30.128 27.763 11.132 
685 9 1 32.022 28.061 12.963 
686 9 1 33.839 28.666 14.731 
687 9 1 35.567 29.615 16.417 
688 9 1 37.529 31.190 15.717 
689 9 1 39.253 32.907 14.975 
690 9 1 40.052 34.818 13.981 
691 9 1 40.074 37.163 12.842 
692 9 1 41.168 39.139 12.320 
693 9 1 43.344 40.447 12.076 
694 9 1 44.860 41.806 10.948 
695 9 1 43.716 44.035 10.384 
696 9 1 44.236 45.610  8.395 
697 9 1 44.694 46.750  6.131 
698 9 1 45.695 46.924  4.078 
699 9 1 47.030 46.553  1.966 
700 9 1 47.964 46.187 47.533 
701 9 1 48.436 45.667 45.074 
702 9 1 49.147 44.991 42.665 
703 9 1 49.282 45.174 40.319 
704 9 1 48.875 46.236 38.002 
705 9 1 46.888 45.977 37.077 
706 9 1 44.695 45.101 36.715 
707 9 1 42.358 44.090 37.202 
708 9 1 40.828 42.373 37.076 
709 9 1 39.342 40.757 36.264 
710 9 1 37.374 39.570 36.539 
711 9 1 35.912 37.901 36.875 
712 9 1 36.699 35.805 37.527 
713 9 1 38.076 34.331 38.566 
714 9 1 40.407 33.431 39.094 
715 9 1 42.360 32.390 40.273 
716 9 1 44.271 31.333 41.668 
717 9 1 45.912 30.125 43.132 
718 9 1 47.407 29.011 44.828 
719 9 1 48.600 27.203 45.792 
720 9 1 49.874 25.683 46.820 
721 9 1 51.504 24.853 48.570 
722 9 1 -1.281 24.037  2.100 
723 9 1  0.762 23.086  3.521 
724 9 1  3.236 23.777  3.701 
725 9 1  5.742 23.724  4.395 
726 9 1  8.022 23.745  4.334 
727 9 1 10.409 24.185  3.404 
728 9 1 12.810 24.319  2.606 
729 9 1 15.084 24.386  2.868 
730 9 1 16.014 26.366  4.147 
731 9 1 18.169 26.476  5.657 
732 9 1 17.661 25.617  7.765 
733 9 1 17.338 24.835  9.949 
734 9 1 17.327 25.342 12.434 
735 9 1 17.312 25.371 14.992 
736 9 1 16.366 25.959 17.027 
737 9 1 14.845 26.827 18.781 
738 9 1 13.836 25.820 20.664 
739 9 1 13.044 23.951 22.185 
740 9 1 12.388 22.020 23.765 
741 9 1 11.797 20.968 25.752 
742 9 1 12.253 20.148 27.999 
743 9 1 14.048 18.307 27.549 
744 9 1 14.498 16.257 26.618 
745 9 1 14.069 14.219 25.103 
746 9 1 13.741 12.147 23.605 
747 9 1 13.528 10.041 22.127 
748 9 1 13.902  8.715 20.233 
749 9 1 14.852  8.723 17.797 
750 9 1 15.914  7.591 16.139 
751 9 1 16.935  6.156 14.445 
752 9 1 18.295  5.232 12.498 
753 10 1 -0.613 25.967 38.048 
754 10 1  0.831 24.863 39.954 
755 10 1  3.277 25.400 40.591 
756 10 1  5.608 26.187 41.146 
757 10 1  8.053 26.973 41.434 
758 10 1  9.623 26.423 43.451 
759 10 1 10.129 25.702 45.908 
760 10 1  9.835 27.171 48.018 
761 10 1  9.213 29.003  1.326 
762 10 1  7.979 31.170  1.597 
763 10 1  7.168 33.658  1.528 
764 10 1  4.846 34.923  1.585 
765 10 1  2.649 36.305  1.867 
766 10 1  0.326 36.906  1.618 
767 10 1 -1.824 37.656  1.656 
768 10 1 50.831 38.610  1.682 
769 10 1 48.629 38.828  1.867 
770 10 1 46.357 38.556  3.070 
771 10 1 45.406 36.741  4.477 
772 10 1 44.345 35.022  6.032 
773 10 1 43.284 33.244  7.640 
774 10 1 42.669 32.031  9.847 
775 10 1 41.674 30.634 11.799 
776 10 1 41.934 29.961 14.053 
777 10 1 42.621 30.136 16.500 
778 10 1 42.710 29.790 18.865 
779 10 1 42.589 28.397 21.068 
780 10 1 44.217 26.601 21.993 
781 10 1 45.454 25.322 23.884 
782 10 1 44.131 25.386 25.758 
783 10 1 42.428 26.636 27.204 
784 10 1 42.546 28.954 28.310 
785 10 1 41.249 29.652 30.387 
786 10 1 39.844 30.409 32.422 
787 10 1 40.253 32.642 33.743 
788 10 1 41.513 34.204 34.900 
789 10 1 43.505 35.499 35.574 
790 10 1 45.565 34.758 34.800 
791 10 1 47.648 33.094 34.780 
792 10 1 48.773 31.488 36.490 
793 10 1 49.637 29.953 38.426 
794 10 1 50.715 28.947 40.463 
795 10 1 -2.746 28.163 42.529 
796 10 1 -1.144 27.013 44.221 
797 10 1  0.459 25.610 45.685 
798 10 1  2.277 24.977 46.954 
799 10 1  4.676 25.488 47.878 
800 10 1  5.177 27.744 47.285 
801 10 1  4.743 29.882 46.294 
802 10 1  3.596 32.166 46.058 
803 10 1  2.484 34.458 45.767 
804 10 1  0.740 34.927 44.094 
805 10 1 -0.378 35.393 41.832 
806 10 1 -1.354 35.988 39.551 
807 10 1 -2.192 36.967 37.269 
808 10 1 -1.015 38.984 36.019 
809 10 1  0.790 40.059 34.866 
810 10 1  3.014 40.530 33.840 
811 10 1  5.513 40.759 33.428 
812 10 1  7.832 40.962 34.063 
813 10 1  9.842 41.952 34.635 
814 10 1 11.667 41.279 33.017 
815 10 1 13.684 41.960 33.600 
816 10 1 15.806 41.880 34.938 
817 10 1 17.965 41.586 36.167 
818 10 1 20.137 41.111 37.691 
819 10 1 21.053 41.517 40.048 
820 10 1 21.892 41.727 42.482 
821 10 1 20.314 42.357 44.089 
822 10 1 18.172 43.132 44.337 
823 10 1 15.627 43.433 43.898 
824 10 1 13.062 43.513 43.757 
825 10 1 10.489 43.287 43.767 
826 10 1  7.877 43.122 43.680 
827 10 1  5.417 43.729 43.614 
828 10 1  3.046 44.674 43.488 
829 10 1  0.666 45.772 43.110 
830 10 1 -1.071 47.138 43.690 
831 11 1  1.603 29.096 33.843 
832 11 1 -0.641 30.255 33.472 
833 11 1 -3.003 31.276 33.203 
834 11 1 51.224 33.684 32.845 
835 11 1 50.349 36.038 32.351 
836 11 1 49.765 38.420 32.331 
837 11 1 49.491 40.911 33.126 
838 11 1 51.013 42.681 34.113 
839 11 1 50.021 44.836 34.111 
840 11 1 50.934 46.069 32.072 
841 11 1 49.886 47.908 30.644 
842 11 1 47.884 47.600 28.933 
843 11 1 45.562 48.123 28.677 
844 11 1 43.485  2.604 29.267 
845 11 1 41.446  4.071 29.995 
846 11 1 40.841  4.101 32.572 
847 11 1 39.210  5.801 33.705 
848 11 1 38.105  5.641 36.033 
849 11 1 37.495  5.684 38.537 
850 11 1 36.764  4.820 40.580 
851 11 1 35.612  3.029 41.916 
852 11 1 34.334  1.213 43.193 
853 11 1 33.339 46.167 44.267 
854 11 1 31.483 45.723 46.052 
855 11 1 29.441 45.629 47.713 
856 11 1 26.853 45.758 47.457 
857 11 1 24.318 46.021 47.240 
858 11 1 22.347 47.105 46.936 
859 11 1 20.202  0.942 46.695 
860 11 1 17.625  0.992 46.459 
861 11 1 15.105  1.383 46.254 
862 11 1 12.614  1.695 45.694 
863 11 1 10.091  1.946 45.201 
864 11 1  7.519  2.109 44.922 
865 11 1  4.892  2.258 45.244 
866 11 1  2.455  2.899 45.850 
867 11 1  0.446  3.649 47.148 
868 11 1 -1.749  4.088 48.547 
869 11 1 50.823  4.549  1.931 
870 11 1 48.455  4.758  3.117 
871 11 1 46.226  5.484  3.874 
872 11 1 44.145  5.176  2.491 
873 11 1 41.980  5.118  1.057 
874 11 1 39.717  5.547 47.733 
875 11 1 37.414  5.347 47.868 
876 11 1 36.323  5.680  2.268 
877 11 1 36.482  6.312  4.478 
878 11 1 38.617  7.605  5.330 
879 11 1 41.150  6.802  5.134 
880 11 1 42.444  5.548  6.939 
881 11 1 43.835  3.544  7.917 
882 11 1 46.425  3.410  8.303 
883 11 1 48.312  4.321  9.130 
884 11 1 50.172  6.095  9.503 
885 11 1 52.028  7.903 10.100 
886 11 1 -1.323  8.735 11.627 
887 11 1  0.077  8.432 13.740 
888 11 1  1.029  8.058 16.137 
889 11 1  1.955  7.509 18.439 
890 11 1  0.418  6.341 19.607 
891 11 1 -1.748  6.188 21.151 
892 11 1 50.828  5.448 21.853 
893 11 1 48.317  5.976 21.174 
894 11 1 47.078  5.843 18.935 
895 11 1 45.978  6.328 16.663 
896 11 1 44.881  7.002 14.494 
897 11 1 44.843  7.480 12.221 
898 11 1 45.783  8.154  9.900 
899 11 1 46.949  8.551  7.498 
900 11 1 46.979  9.555  5.568 
901 11 1 48.288 11.813  5.864 
902 11 1 49.854 13.277  6.580 
903 11 1 51.660 14.229  8.153 
904 11 1 -1.522 15.602  9.672 
905 11 1 -2.781 16.391 11.551 
906 11 1 50.147 17.577 12.868 
907 11 1 49.100 18.403 14.900 
908 11 1 48.535 19.288 17.147 
909 12 1 21.773 26.896 29.130 
910 12 1 20.322 24.756 28.782 
911 12 1 18.949 22.796 27.654 
912 12 1 17.784 21.010 26.120 
913 12 1 16.948 19.564 24.134 
914 12 1 16.299 18.119 22.089 
915 12 1 15.085 16.586 20.360 
916 12 1 13.967 15.023 18.594 
917 12 1 12.636 13.680 16.876 
918 12 1 11.698 12.080 15.174 
919 12 1 11.065 10.260 13.481 
920 12 1 12.662  9.361 11.615 
921 12 1 13.772 10.670 10.093 
922 12 1 14.663 13.009  9.336 
923 12 1 15.042 14.884 11.097 
924 12 1 15.666 16.056 13.051 
925 12 1 17.081 16.826 14.962 
926 12 1 18.802 17.104 16.977 
927 12 1 20.462 17.891 18.649 
928 12 1 21.278 18.335 20.889 
929 12 1 21.632 18.574 23.484 
930 12 1 22.940 19.098 25.250 
931 12 1 24.403 20.611 26.175 
932 12 1 24.612 22.097 27.944 
933 12 1 25.493 22.687 30.248 
934 12 1 26.380 23.263 32.542 
935 12 1 27.475 23.832 34.876 
936 12 1 30.013 23.945 34.919 
937 12 1 31.695 22.668 36.446 
938 12 1 33.034 21.361 38.050 
939 12 1 34.131 19.508 38.926 
940 12 1 34.490 17.320 39.840 
941 12 1 33.035 15.749 38.999 
942 12 1 32.146 13.939 37.383 
943 12 1 30.917 11.876 36.375 
944 12 1 29.689  9.996 35.264 
945 12 1 27.963  8.403 34.841 
946 12 1 27.437  6.344 36.279 
947 12 1 27.058  4.113 37.326 
948 12 1 24.811  2.967 37.832 
949 12 1 22.556  2.896 37.993 
950 12 1 20.302  3.367 36.850 
951 12 1 17.910  3.930 36.100 
952 12 1 15.736  3.255 35.766 
953 12 1 13.742  1.754 36.348 
954 12 1 12.810 46.747 35.225 
955 12 1 11.845 44.699 36.685 
956 12 1 13.562 44.183 38.118 
957 12 1 15.981 44.485 38.957 
958 12 1 18.332 44.857 39.905 
959 12 1 20.290 45.747 38.440 
960 12 1 22.817 45.231 38.528 
961 12 1 25.319 44.592 38.581 
962 12 1 26.937 42.991 38.355 
963 12 1 26.816 42.356 35.987 
964 12 1 25.782 41.797 33.624 
965 12 1 23.619 42.747 32.610 
966 12 1 23.277 42.617 30.250 
967 12 1 22.870 44.759 28.946 
968 12 1 21.012 45.001 27.532 
969 12 1 18.511 45.593 26.959 
970 12 1 16.147 46.088 26.170 
971 12 1 13.654 46.540 25.404 
972 12 1 11.614 46.732 24.078 
973 12 1 10.354 46.221 21.906 
974 12 1 11.177 46.017 19.482 
975 12 1 11.654 45.375 17.048 
976 12 1 11.877 43.756 15.501 
977 12 1  9.988 41.954 15.217 
978 12 1  9.379 39.823 16.694 
979 12 1  8.968 37.958 18.376 
980 12 1  7.493 35.817 18.258 
981 12 1  7.093 33.998 20.187 
982 12 1  7.286 32.680 22.328 
983 12 1  7.804 31.409 24.479 
984 12 1  8.144 30.092 26.686 
985 12 1  8.690 28.906 28.942 
986 12 1  6.934 27.965 30.599 