LAMMPS data file generated by aa2cg.

2000 atoms
1 atom types
1975 bonds
1 bond types
1950 angles
1 angle types
1925 dihedrals
1 dihedral types

 0.000 54.548 xlo xhi
 0.000 42.563 ylo yhi
 0.000 53.354 zlo zhi

Masses

1 24.022

Atoms # molecular

1 1 1  6.955 12.501 30.205 
2 1 1 49.643 18.171 43.161 
3 2 1 19.391 14.651 11.446 
4 2 1 44.596 28.333  1.595 
5 3 1 13.665  6.823 17.625 
6 3 1 38.383 39.633 28.219 
7 4 1 48.805 23.664 48.596 
8 4 1 23.358  3.828 37.633 
9 5 1 16.111 13.372  7.320 
10 5 1 39.654 16.595 28.491 
11 6 1 -0.259 31.893 40.320 
12 6 1 13.984 18.286 37.142 
13 7 1 43.760 31.934 -1.174 
14 7 1 29.446 35.443  0.633 
15 8 1 41.776 37.185 16.894 
16 8 1 12.612 37.090 36.269 
17 9 1 45.802 12.943  7.710 
18 9 1 49.398 24.491 18.610 
19 10 1  7.357 15.087 26.767 
20 10 1 49.137 39.854 23.289 
21 11 1  2.261 20.689 26.118 
22 11 1 32.042 46.130 48.273 
23 12 1 41.901  5.756  9.166 
24 12 1 33.611 28.413 22.642 
25 13 1 40.315 35.748 11.918 
26 13 1 48.507 12.553 30.693 
27 14 1  5.357 44.438 39.497 
28 14 1 50.147 18.188  2.259 
29 15 1 20.327  7.540 24.996 
30 15 1 11.812 34.097 23.402 
31 16 1 34.830 42.305 11.264 
32 16 1 21.249 30.906 20.495 
33 17 1 36.160  5.642 49.414 
34 17 1 31.925 44.378 30.628 
35 18 1  7.963 30.390  4.643 
36 18 1 31.819 32.483 25.458 
37 19 1 24.960 12.298 33.706 
38 19 1 46.121 21.687 29.565 
39 20 1 42.441  3.866 18.284 
40 20 1 -0.263 36.674 14.981 
41 21 1 32.523 45.759 43.419 
42 21 1  8.425 39.007 27.078 
43 22 1 48.784 27.530 30.893 
44 22 1 19.240 42.977 28.416 
45 23 1 28.021  8.874  5.415 
46 23 1 10.071 30.541 12.230 
47 24 1 45.355 25.457 40.354 
48 24 1 50.438 36.679 18.353 
49 25 1 21.707 34.071 28.651 
50 25 1 27.842  4.751 15.400 
51 1 1  9.184 13.071 31.330 
52 1 1 11.535 13.094 30.264 
53 1 1 13.613 11.563 30.717 
54 1 1 15.868 11.123 29.346 
55 1 1 17.952  9.994 28.572 
56 1 1 20.174 11.097 27.977 
57 1 1 22.214 12.522 27.379 
58 1 1 24.188 14.045 26.845 
59 1 1 26.054 15.542 25.994 
60 1 1 27.453 17.512 25.146 
61 1 1 29.429 18.595 26.357 
62 1 1 30.468 19.822 28.110 
63 1 1 31.658 21.169 29.508 
64 1 1 32.680 23.560 28.832 
65 1 1 33.664 25.910 28.481 
66 1 1 34.144 28.382 28.792 
67 1 1 36.526 29.146 29.199 
68 1 1 38.720 28.721 29.216 
69 1 1 40.302 26.768 28.781 
70 1 1 41.428 24.423 28.858 
71 1 1 42.922 23.167 27.171 
72 1 1 44.405 22.082 25.448 
73 1 1 45.518 20.974 23.487 
74 1 1 47.179 19.633 21.990 
75 1 1 49.105 18.399 22.734 
76 1 1 51.233 17.488 22.876 
77 1 1 -1.995 15.704 23.515 
78 1 1 -0.453 14.460 25.036 
79 1 1  1.479 14.729 26.327 
80 1 1  3.126 15.748 28.086 
81 1 1  5.049 16.775 29.571 
82 1 1  7.071 17.610 30.929 
83 1 1  9.382 17.796 31.323 
84 1 1 11.856 17.585 30.562 
85 1 1 14.268 17.355 29.875 
86 1 1 15.545 18.988 28.296 
87 1 1 17.142 20.471 26.870 
88 1 1 18.692 21.801 25.337 
89 1 1 20.439 21.041 23.470 
90 1 1 22.534 20.223 24.224 
91 1 1 23.323 18.709 22.648 
92 1 1 24.353 18.126 20.341 
93 1 1 24.779 18.088 17.805 
94 1 1 24.516 18.111 15.256 
95 1 1 23.216 18.342 13.331 
96 1 1 22.004 19.020 11.516 
97 1 1 21.394 20.721  9.551 
98 1 1 23.006 22.004  7.881 
99 1 1 24.336 24.137  8.255 
100 1 1 25.268 25.930  9.572 
101 1 1 25.491 27.140 11.762 
102 1 1 25.536 28.548 13.960 
103 1 1 25.779 30.445 15.703 
104 1 1 25.401 32.137 17.592 
105 1 1 24.801 33.935 19.352 
106 1 1 24.137 35.869 20.860 
107 1 1 23.580 37.188 22.669 
108 1 1 21.451 36.338 23.769 
109 1 1 19.281 35.463 24.864 
110 1 1 17.251 34.016 25.890 
111 1 1 15.531 32.306 26.782 
112 1 1 13.318 31.667 27.339 
113 1 1 10.767 31.681 27.129 
114 1 1  8.689 31.093 27.835 
115 1 1  6.898 30.281 29.509 
116 1 1  5.031 29.554 31.202 
117 1 1  5.704 29.556 33.692 
118 1 1  6.683 30.298 35.939 
119 1 1  5.699 30.335 38.372 
120 1 1  4.419 29.581 40.214 
121 1 1  3.703 28.667 42.242 
122 1 1  4.165 28.105 44.702 
123 1 1  3.414 27.437 46.823 
124 1 1  1.667 26.492 48.502 
125 1 1 -0.121 25.338 47.661 
126 1 1 -1.313 23.155 46.914 
127 1 1 -2.690 21.037 46.503 
128 1 1 50.689 19.442 45.175 
129 2 1 21.384 13.878 12.799 
130 2 1 23.516 13.239 13.983 
131 2 1 25.674 13.944 14.613 
132 2 1 27.774 15.473 14.518 
133 2 1 29.966 16.238 13.805 
134 2 1 32.126 16.298 12.556 
135 2 1 34.484 16.858 12.207 
136 2 1 36.845 17.794 12.649 
137 2 1 39.022 17.782 13.685 
138 2 1 41.029 17.052 15.143 
139 2 1 42.813 16.093 16.853 
140 2 1 44.381 15.199 18.741 
141 2 1 46.252 14.189 19.866 
142 2 1 48.498 13.028 19.977 
143 2 1 50.883 11.961 19.925 
144 2 1 -1.351 10.923 19.840 
145 2 1  0.822  9.743 20.192 
146 2 1  2.907  8.184 20.455 
147 2 1  3.014  5.640 19.950 
148 2 1  2.202  3.642 19.243 
149 2 1  0.109 44.903 18.571 
150 2 1 -1.969 43.957 17.530 
151 2 1 51.004 42.520 16.326 
152 2 1 50.217 40.346 15.228 
153 2 1 49.337 38.420 13.823 
154 2 1 50.727 37.302 11.968 
155 2 1 -2.027 36.089 10.634 
156 2 1  0.267 35.706 10.020 
157 2 1  2.728 36.460 10.095 
158 2 1  5.063 37.375 10.282 
159 2 1  7.476 38.237 10.788 
160 2 1  9.005 37.159 12.616 
161 2 1  9.453 38.127 15.033 
162 2 1  9.362 37.069 17.338 
163 2 1  8.949 36.194 19.660 
164 2 1  7.767 35.604 21.911 
165 2 1  6.677 34.900 24.051 
166 2 1  5.334 34.386 26.170 
167 2 1  3.916 33.817 28.205 
168 2 1  2.178 33.527 29.915 
169 2 1  0.358 32.834 31.607 
170 2 1 -1.581 32.097 33.146 
171 2 1 50.779 31.494 33.467 
172 2 1 48.361 31.039 32.579 
173 2 1 46.079 30.448 31.526 
174 2 1 43.698 30.038 30.350 
175 2 1 43.479 28.863 28.011 
176 2 1 43.757 29.870 25.576 
177 2 1 44.083 31.041 23.254 
178 2 1 45.508 31.775 21.635 
179 2 1 47.679 32.206 20.457 
180 2 1 49.335 30.667 19.187 
181 2 1 51.896 30.405 19.644 
182 2 1 -0.977 29.243 20.800 
183 2 1  0.223 27.626 22.536 
184 2 1  1.832 26.389 24.158 
185 2 1  3.519 25.129 25.511 
186 2 1  5.080 23.938 27.072 
187 2 1  6.410 23.827 29.035 
188 2 1  7.441 24.719 31.222 
189 2 1  8.520 25.535 33.363 
190 2 1  9.338 26.213 35.708 
191 2 1 10.166 26.887 38.058 
192 2 1  9.124 27.348 40.504 
193 2 1  8.165 27.579 42.961 
194 2 1  9.872 28.273 44.432 
195 2 1 11.538 29.079 45.775 
196 2 1 10.940 29.082 48.325 
197 2 1 10.963 28.837 50.837 
198 2 1  9.897 28.255 -0.518 
199 2 1  8.188 27.388  1.089 
200 2 1  6.442 26.537  2.858 
201 2 1  4.292 27.712  3.948 
202 2 1  2.230 29.071  4.909 
203 2 1 -0.277 28.517  4.749 
204 2 1 -2.665 28.096  4.099 
205 2 1 49.482 27.981  3.192 
206 2 1 47.042 28.157  2.282 
207 3 1 15.087  8.894 17.706 
208 3 1 16.705 10.948 17.839 
209 3 1 18.288 12.900 17.651 
210 3 1 19.360 15.081 17.648 
211 3 1 20.199 17.474 18.122 
212 3 1 21.151 19.880 18.268 
213 3 1 22.331 22.198 18.506 
214 3 1 20.999 23.865 19.356 
215 3 1 18.834 24.139 20.071 
216 3 1 17.413 24.497 21.786 
217 3 1 17.456 26.710 23.067 
218 3 1 19.530 27.876 23.858 
219 3 1 21.796 28.395 24.326 
220 3 1 24.263 27.713 24.625 
221 3 1 26.755 26.940 24.643 
222 3 1 29.135 25.999 24.616 
223 3 1 31.336 24.617 24.544 
224 3 1 33.404 23.150 24.278 
225 3 1 33.729 20.828 25.380 
226 3 1 33.963 18.535 24.125 
227 3 1 34.183 16.513 22.636 
228 3 1 34.394 14.608 20.932 
229 3 1 34.752 12.552 19.320 
230 3 1 35.128 10.270 18.046 
231 3 1 35.219  8.868 16.118 
232 3 1 35.070  8.134 13.743 
233 3 1 35.716  7.409 11.398 
234 3 1 37.915  6.695 11.196 
235 3 1 38.448  5.138 13.148 
236 3 1 38.154  4.076 15.173 
237 3 1 36.977  3.827 17.423 
238 3 1 35.607  3.828 19.739 
239 3 1 34.456  3.837 22.024 
240 3 1 33.452  3.889 24.368 
241 3 1 31.025  4.817 24.933 
242 3 1 28.752  5.783 25.581 
243 3 1 26.360  6.750 26.026 
244 3 1 25.279  8.082 27.970 
245 3 1 24.339  9.622 29.799 
246 3 1 22.573  9.098 31.590 
247 3 1 20.836  9.020 33.603 
248 3 1 19.140 10.874 34.362 
249 3 1 17.237 10.893 36.149 
250 3 1 14.681 11.441 35.994 
251 3 1 12.947 11.808 37.834 
252 3 1 12.584 13.818 39.272 
253 3 1 12.121 15.726 40.989 
254 3 1 10.053 17.271 40.868 
255 3 1  7.950 17.577 42.229 
256 3 1  5.619 18.125 42.941 
257 3 1  3.404 17.666 42.886 
258 3 1  1.345 17.229 41.597 
259 3 1 -0.556 16.761 40.425 
260 3 1 -2.393 15.202 39.248 
261 3 1 50.182 14.183 38.076 
262 3 1 48.084 13.432 36.666 
263 3 1 46.078 13.864 35.607 
264 3 1 44.317 15.778 35.180 
265 3 1 44.742 17.972 36.005 
266 3 1 46.215 18.719 37.798 
267 3 1 48.086 19.915 38.477 
268 3 1 49.446 22.115 38.550 
269 3 1 50.781 24.269 38.660 
270 3 1 49.688 26.581 38.237 
271 3 1 48.574 26.731 36.177 
272 3 1 46.497 26.373 34.660 
273 3 1 44.480 26.345 33.091 
274 3 1 41.963 26.932 33.551 
275 3 1 39.512 27.490 34.180 
276 3 1 37.168 28.414 33.940 
277 3 1 34.947 29.390 33.852 
278 3 1 32.581 30.326 33.175 
279 3 1 31.245 31.822 31.993 
280 3 1 30.449 33.564 30.378 
281 3 1 30.668 35.688 29.509 
282 3 1 31.357 38.120 29.756 
283 3 1 33.674 39.175 29.112 
284 3 1 36.083 39.911 28.765 
285 4 1 50.551 24.916 49.960 
286 4 1 -2.274 25.961 -1.761 
287 4 1 -0.230 26.385 -0.259 
288 4 1  1.947 27.014 -0.115 
289 4 1  3.908 28.311 -1.237 
290 4 1  5.901 29.729 -1.930 
291 4 1  5.143 31.527 49.966 
292 4 1  3.702 33.503 48.981 
293 4 1  1.855 35.272 48.332 
294 4 1 -0.696 35.067 47.968 
295 4 1 -3.053 34.900 47.005 
296 4 1 49.107 34.623 46.190 
297 4 1 46.748 34.426 45.208 
298 4 1 44.343 34.284 44.528 
299 4 1 41.827 34.069 44.576 
300 4 1 39.925 32.850 44.664 
301 4 1 39.528 31.815 46.991 
302 4 1 38.866 30.816 49.307 
303 4 1 38.144 28.317 49.871 
304 4 1 39.534 26.289 50.899 
305 4 1 38.997 23.864 51.290 
306 4 1 37.919 21.942 -2.727 
307 4 1 36.427 20.313 49.380 
308 4 1 36.847 18.768 47.278 
309 4 1 36.183 19.370 44.841 
310 4 1 35.880 19.981 42.350 
311 4 1 36.441 18.466 40.228 
312 4 1 36.836 17.068 38.095 
313 4 1 37.692 18.434 36.434 
314 4 1 38.864 19.703 34.791 
315 4 1 39.724 17.742 33.454 
316 4 1 40.392 15.374 32.743 
317 4 1 39.055 13.257 33.246 
318 4 1 37.632 12.014 34.645 
319 4 1 36.273 11.599 36.761 
320 4 1 35.060 10.877 38.967 
321 4 1 36.163 12.245 40.704 
322 4 1 37.739 13.903 41.728 
323 4 1 39.165 15.599 42.978 
324 4 1 40.363 17.213 44.560 
325 4 1 41.105 18.000 46.566 
326 4 1 41.380 17.720 49.113 
327 4 1 42.052 16.527 50.976 
328 4 1 43.424 15.278 -0.908 
329 4 1 45.986 14.785 -1.180 
330 4 1 48.514 14.585 -1.466 
331 4 1 51.187 14.389 -1.451 
332 4 1 -0.790 14.109 -1.714 
333 4 1  1.752 14.013 51.167 
334 4 1  3.394 12.745 50.168 
335 4 1  4.478 10.904 48.778 
336 4 1  6.415  9.815 48.101 
337 4 1  8.990  9.566 48.203 
338 4 1 11.452  8.910 48.466 
339 4 1 13.461 10.217 49.498 
340 4 1 15.191 11.582 50.807 
341 4 1 16.395 12.814 -0.736 
342 4 1 17.288 13.944  1.330 
343 4 1 18.636 15.096  3.227 
344 4 1 20.042 16.105  5.065 
345 4 1 21.253 16.715  7.246 
346 4 1 23.195 15.558  8.272 
347 4 1 25.355 14.712  9.390 
348 4 1 26.688 13.023 10.233 
349 4 1 26.820 10.513 10.374 
350 4 1 26.631  8.021 10.473 
351 4 1 24.780  7.091  8.932 
352 4 1 22.707  5.833  8.014 
353 4 1 22.394  4.804  5.796 
354 4 1 22.288  4.587  3.472 
355 4 1 22.091  5.463  1.064 
356 4 1 22.475  5.537 -1.225 
357 4 1 23.775  5.140 49.962 
358 4 1 25.145  4.692 47.791 
359 4 1 26.418  3.832 45.760 
360 4 1 26.536 45.317 43.749 
361 4 1 25.348 44.385 41.654 
362 4 1 24.291 44.992 39.578 
363 5 1 15.782 12.560  9.767 
364 5 1 15.463 11.522 12.123 
365 5 1 13.806 12.157 14.046 
366 5 1 11.950 12.187 15.744 
367 5 1  9.813 11.948 17.028 
368 5 1  7.798 11.627 18.532 
369 5 1  6.084 12.290 20.135 
370 5 1  4.400 14.059 21.173 
371 5 1  2.277 15.033 21.516 
372 5 1  0.696 15.956 19.591 
373 5 1  0.308 17.391 17.825 
374 5 1  0.699 18.815 15.717 
375 5 1  2.886 18.994 14.418 
376 5 1  5.111 19.421 13.178 
377 5 1  7.277 19.926 11.802 
378 5 1  9.218 20.469 10.305 
379 5 1 11.173 21.506  9.604 
380 5 1 10.847 24.114  9.722 
381 5 1 10.685 26.664  9.374 
382 5 1 12.059 28.608  8.313 
383 5 1 13.914 29.420  7.003 
384 5 1 14.994 30.115  5.046 
385 5 1 14.693 28.950  2.754 
386 5 1 15.750 30.084  0.714 
387 5 1 14.398 32.091 -0.426 
388 5 1 13.046 33.864 -1.659 
389 5 1 11.249 33.476 50.001 
390 5 1  9.165 33.293 48.403 
391 5 1  7.654 33.031 46.360 
392 5 1  6.126 32.834 44.351 
393 5 1  3.714 33.656 44.226 
394 5 1  1.425 33.262 44.705 
395 5 1  0.331 30.866 44.532 
396 5 1 -0.828 28.733 43.702 
397 5 1 -1.945 26.685 42.532 
398 5 1 50.329 25.538 43.153 
399 5 1 48.035 24.547 43.710 
400 5 1 45.995 23.251 44.659 
401 5 1 45.832 20.769 45.471 
402 5 1 45.931 18.356 46.346 
403 5 1 46.076 16.046 47.480 
404 5 1 48.286 15.328 47.401 
405 5 1 50.807 15.662 47.304 
406 5 1 -1.202 16.098 47.143 
407 5 1  1.382 16.748 47.000 
408 5 1  2.988 17.571 48.720 
409 5 1  4.828 18.207 50.483 
410 5 1  6.294 19.445 -1.275 
411 5 1  7.737 20.859  0.300 
412 5 1 10.246 20.504  0.770 
413 5 1 12.101 22.185  0.237 
414 5 1 13.544 24.168 -0.468 
415 5 1 14.387 25.541 -2.100 
416 5 1 15.496 26.044 49.022 
417 5 1 16.243 27.528 47.391 
418 5 1 16.458 29.254 45.612 
419 5 1 17.643 29.960 43.636 
420 5 1 19.736 30.074 42.183 
421 5 1 22.025 30.102 40.979 
422 5 1 24.326 29.923 39.806 
423 5 1 25.013 29.293 37.799 
424 5 1 25.366 28.737 35.465 
425 5 1 26.513 28.677 33.224 
426 5 1 28.074 28.407 31.204 
427 5 1 28.533 29.314 29.091 
428 5 1 27.792 30.564 26.966 
429 5 1 26.955 31.503 24.730 
430 5 1 27.163 31.391 22.424 
431 5 1 28.005 29.784 20.583 
432 5 1 28.270 27.735 19.469 
433 5 1 29.754 25.904 19.969 
434 5 1 31.970 24.686 19.623 
435 5 1 34.328 23.923 20.034 
436 5 1 36.923 23.635 20.379 
437 5 1 38.752 22.510 21.267 
438 5 1 39.596 20.440 22.552 
439 5 1 40.391 19.313 24.718 
440 5 1 38.918 17.761 26.312 
441 6 1 -2.575 32.960 40.835 
442 6 1 50.093 32.034 39.688 
443 6 1 48.069 30.987 38.743 
444 6 1 45.815 31.186 37.572 
445 6 1 43.583 31.628 36.558 
446 6 1 41.272 32.083 35.520 
447 6 1 39.405 32.522 33.890 
448 6 1 38.195 32.978 31.587 
449 6 1 36.888 33.739 29.463 
450 6 1 35.779 34.033 27.157 
451 6 1 35.995 35.942 25.510 
452 6 1 36.111 37.778 23.716 
453 6 1 34.539 37.731 21.627 
454 6 1 33.021 37.440 19.607 
455 6 1 32.188 39.236 17.878 
456 6 1 32.032 41.406 16.926 
457 6 1 30.627 43.026 18.397 
458 6 1 29.571 45.098 19.651 
459 6 1 28.099  4.311 20.302 
460 6 1 26.013  5.347 20.635 
461 6 1 23.788  4.245 19.767 
462 6 1 21.792  3.054 18.825 
463 6 1 20.069 43.922 17.852 
464 6 1 18.544 42.114 16.702 
465 6 1 18.434 40.645 14.925 
466 6 1 18.183 40.602 12.625 
467 6 1 17.199 41.028 10.312 
468 6 1 16.380 41.217  7.940 
469 6 1 15.215 41.631  5.721 
470 6 1 14.539 41.790  3.420 
471 6 1 14.571 41.132  1.012 
472 6 1 14.319 39.676 -0.711 
473 6 1 12.923 38.492 -2.025 
474 6 1 10.772 38.469 49.898 
475 6 1  8.458 38.360 48.682 
476 6 1  6.303 38.158 47.385 
477 6 1  3.931 38.137 46.244 
478 6 1  1.589 38.171 45.160 
479 6 1 -0.736 37.893 44.334 
480 6 1 -3.089 37.630 43.349 
481 6 1 49.409 37.675 41.802 
482 6 1 47.405 37.043 40.783 
483 6 1 45.290 35.670 40.210 
484 6 1 42.833 36.527 40.460 
485 6 1 40.409 37.295 40.108 
486 6 1 38.211 37.888 39.051 
487 6 1 36.612 39.288 38.125 
488 6 1 35.396 41.631 37.868 
489 6 1 35.828 42.656 40.049 
490 6 1 38.143 43.620 40.716 
491 6 1 40.155 44.596 41.967 
492 6 1 41.785  3.287 43.497 
493 6 1 43.530 44.961 45.010 
494 6 1 45.366 43.900 46.376 
495 6 1 47.242 42.727 47.560 
496 6 1 47.285 41.460 49.806 
497 6 1 46.110 40.864 -1.654 
498 6 1 44.041 40.964  0.065 
499 6 1 42.103 41.149  1.752 
500 6 1 40.050 41.355  3.318 
501 6 1 37.798 41.296  4.672 
502 6 1 35.779 41.256  6.290 
503 6 1 33.474 42.313  5.767 
504 6 1 32.411 44.351  7.017 
505 6 1 31.604 45.990  5.663 
506 6 1 31.860  5.361  3.939 
507 6 1 31.639  7.646  2.868 
508 6 1 31.367  9.774  1.551 
509 6 1 30.437 11.374  0.085 
510 6 1 28.739 12.194 -1.693 
511 6 1 26.956 13.229 50.233 
512 6 1 25.241 14.559 48.936 
513 6 1 23.732 15.891 47.380 
514 6 1 22.045 17.419 46.528 
515 6 1 19.943 17.733 45.588 
516 6 1 18.469 17.626 43.415 
517 6 1 16.926 17.824 41.353 
518 6 1 15.451 18.179 39.264 
519 7 1 43.976 30.620 50.310 
520 7 1 43.332 29.325 48.222 
521 7 1 42.817 27.542 46.490 
522 7 1 41.072 27.574 44.628 
523 7 1 39.129 28.487 43.474 
524 7 1 36.556 28.346 43.995 
525 7 1 35.461 29.585 45.887 
526 7 1 33.408 31.162 45.793 
527 7 1 31.509 32.897 45.782 
528 7 1 30.712 34.910 45.056 
529 7 1 30.563 37.378 44.452 
530 7 1 32.700 38.794 44.136 
531 7 1 34.919 40.086 43.850 
532 7 1 37.290 40.175 43.808 
533 7 1 39.649 39.507 44.293 
534 7 1 42.052 39.381 43.906 
535 7 1 44.363 39.185 44.221 
536 7 1 46.474 39.035 45.633 
537 7 1 48.693 39.030 46.954 
538 7 1 50.922 39.133 48.368 
539 7 1 -1.560 39.742 49.908 
540 7 1 -1.666 40.322 -0.918 
541 7 1 -2.640 40.890  1.055 
542 7 1 49.916 41.155  2.683 
543 7 1 48.070 41.373  4.499 
544 7 1 45.742 40.142  4.987 
545 7 1 43.671 38.904  5.847 
546 7 1 41.549 37.590  6.408 
547 7 1 39.320 36.690  6.273 
548 7 1 37.142 35.931  5.100 
549 7 1 34.859 35.424  4.108 
550 7 1 34.357 33.656  2.311 
551 7 1 33.930 31.981  0.481 
552 7 1 33.739 29.993 -0.589 
553 7 1 34.054 27.434 -0.952 
554 7 1 35.628 25.879  0.426 
555 7 1 36.991 24.137  1.906 
556 7 1 38.072 22.646  3.701 
557 7 1 39.681 22.024  5.308 
558 7 1 42.005 21.733  6.456 
559 7 1 44.210 21.005  7.567 
560 7 1 46.422 20.215  8.635 
561 7 1 48.646 19.051  9.437 
562 7 1 50.594 17.852 10.406 
563 7 1 -2.166 16.742 11.867 
564 7 1  0.411 16.148 11.749 
565 7 1  2.893 15.393 11.559 
566 7 1  5.095 14.004 11.622 
567 7 1  7.060 12.418 12.020 
568 7 1  8.532 10.554 11.841 
569 7 1  9.629  8.520 11.788 
570 7 1 11.674  7.414 12.333 
571 7 1 14.263  7.011 12.521 
572 7 1 16.128  7.379 10.877 
573 7 1 17.260  6.864  8.918 
574 7 1 17.754  5.943  6.615 
575 7 1 17.804  5.231  4.220 
576 7 1 17.789  4.301  1.858 
577 7 1 17.885  2.877 -0.324 
578 7 1 18.595 44.768 -2.456 
579 7 1 19.700 44.918 48.589 
580 7 1 19.037  3.952 46.553 
581 7 1 20.815  4.524 44.725 
582 7 1 22.696  5.348 43.231 
583 7 1 24.476  6.804 42.120 
584 7 1 26.520  7.129 41.011 
585 7 1 28.959  6.812 40.236 
586 7 1 31.528  6.607 39.756 
587 7 1 33.966  6.339 38.997 
588 7 1 35.709  5.772 40.462 
589 7 1 36.900  5.517 42.600 
590 7 1 37.648  4.497 44.911 
591 7 1 36.515 45.185 46.229 
592 7 1 35.475 43.377 47.679 
593 7 1 34.041 41.585 48.838 
594 7 1 33.041 39.326 49.756 
595 7 1 31.826 37.306 50.837 
596 7 1 30.949 35.289 -1.043 
597 8 1 40.431 35.237 17.015 
598 8 1 38.053 34.295 16.919 
599 8 1 35.998 33.675 18.006 
600 8 1 34.545 32.213 19.288 
601 8 1 32.024 32.481 18.751 
602 8 1 30.015 33.630 18.574 
603 8 1 28.438 35.534 19.211 
604 8 1 28.856 37.676 20.537 
605 8 1 28.616 40.104 21.581 
606 8 1 28.496 42.540 22.425 
607 8 1 26.728 44.011 23.659 
608 8 1 25.001 44.045 25.134 
609 8 1 23.420 43.450 23.354 
610 8 1 22.708 41.527 21.789 
611 8 1 24.250 40.930 19.678 
612 8 1 25.891 40.840 17.623 
613 8 1 25.313 39.144 16.087 
614 8 1 24.984 37.605 14.421 
615 8 1 24.349 36.708 12.300 
616 8 1 23.371 35.621 10.618 
617 8 1 23.432 33.731  8.923 
618 8 1 23.610 31.558  7.499 
619 8 1 23.886 29.875  5.589 
620 8 1 24.037 28.208  3.688 
621 8 1 24.198 26.068  2.111 
622 8 1 23.978 23.930  0.713 
623 8 1 23.604 22.078 -1.003 
624 8 1 22.358 20.604 51.292 
625 8 1 20.340 19.083 51.082 
626 8 1 18.348 17.431 51.044 
627 8 1 15.992 18.014 -1.494 
628 8 1 13.938 17.229 -2.309 
629 8 1 11.977 18.891 50.552 
630 8 1 10.874 18.402 48.598 
631 8 1  9.433 18.249 46.728 
632 8 1  7.390 19.807 46.603 
633 8 1  5.132 21.262 46.610 
634 8 1  4.819 23.308 45.196 
635 8 1  2.945 23.948 43.598 
636 8 1  1.371 24.407 41.670 
637 8 1  0.640 24.172 39.330 
638 8 1  0.385 23.660 36.961 
639 8 1 -0.819 23.908 35.002 
640 8 1 -2.566 23.488 33.384 
641 8 1 51.781 23.245 31.206 
642 8 1 -1.990 23.928 28.850 
643 8 1 -1.471 26.239 27.896 
644 8 1 -1.568 28.514 27.659 
645 8 1 -1.250 30.907 27.707 
646 8 1 -1.177 33.084 26.768 
647 8 1 -0.971 33.217 24.417 
648 8 1  0.593 32.763 22.550 
649 8 1  2.800 31.644 22.914 
650 8 1  4.973 30.373 23.233 
651 8 1  7.179 29.057 23.799 
652 8 1  9.501 29.618 23.034 
653 8 1 12.202 29.784 22.477 
654 8 1 14.693 30.236 22.153 
655 8 1 16.377 31.636 21.646 
656 8 1 17.450 33.935 21.206 
657 8 1 18.454 36.162 20.211 
658 8 1 20.045 37.418 19.019 
659 8 1 19.900 36.626 16.567 
660 8 1 19.805 36.024 14.009 
661 8 1 18.929 35.897 11.821 
662 8 1 18.010 36.395  9.488 
663 8 1 16.768 36.641  7.294 
664 8 1 15.262 36.956  5.200 
665 8 1 14.691 36.282  3.136 
666 8 1 16.539 35.721  1.429 
667 8 1 18.032 35.702 -0.603 
668 8 1 17.310 35.681 50.151 
669 8 1 16.559 35.509 47.814 
670 8 1 15.539 35.529 45.400 
671 8 1 16.319 34.472 43.231 
672 8 1 17.041 35.478 41.031 
673 8 1 16.140 35.138 38.733 
674 8 1 14.682 35.562 36.593 
675 9 1 47.187 12.951  9.825 
676 9 1 49.792 12.686 10.055 
677 9 1 -2.712 11.696  9.421 
678 9 1 -1.395 10.186  7.816 
679 9 1 -1.135  7.566  7.870 
680 9 1 -0.454  5.530  8.653 
681 9 1 -0.379  4.029 10.493 
682 9 1 -0.845  4.691 13.002 
683 9 1 -0.661  5.896 14.875 
684 9 1  0.584  7.633 16.278 
685 9 1 -0.069  9.935 15.560 
686 9 1 -1.293 11.775 15.041 
687 9 1 -2.529 13.943 15.824 
688 9 1 50.391 15.628 15.737 
689 9 1 48.182 16.532 14.602 
690 9 1 46.312 17.565 13.225 
691 9 1 45.357 16.540 11.086 
692 9 1 43.007 17.289 10.103 
693 9 1 40.712 18.226  9.386 
694 9 1 38.382 19.113  9.016 
695 9 1 36.375 20.524  8.772 
696 9 1 34.329 21.677  9.243 
697 9 1 32.129 21.453  8.383 
698 9 1 30.768 23.681  8.363 
699 9 1 29.706 25.333  6.567 
700 9 1 28.388 25.967  4.670 
701 9 1 28.057 23.720  3.357 
702 9 1 28.431 22.217  1.578 
703 9 1 29.074 21.652 -0.855 
704 9 1 30.949 22.602 -2.295 
705 9 1 32.617 23.516 49.211 
706 9 1 34.341 24.404 47.555 
707 9 1 36.458 24.406 46.629 
708 9 1 38.878 23.653 46.590 
709 9 1 41.184 22.822 47.486 
710 9 1 42.975 22.551 49.105 
711 9 1 44.180 23.436 51.202 
712 9 1 46.058 23.643 -0.581 
713 9 1 48.372 23.440  0.505 
714 9 1 50.628 23.167  1.738 
715 9 1 -1.620 22.875  2.910 
716 9 1  0.714 23.013  3.807 
717 9 1  3.079 23.287  4.699 
718 9 1  5.112 21.689  4.110 
719 9 1  7.669 22.085  4.602 
720 9 1  9.855 23.116  4.467 
721 9 1 11.971 23.740  4.414 
722 9 1 14.024 23.935  5.469 
723 9 1 15.565 24.858  7.351 
724 9 1 17.465 25.158  8.775 
725 9 1 17.612 24.151 11.117 
726 9 1 17.398 23.040 13.347 
727 9 1 17.215 21.904 15.659 
728 9 1 16.741 20.486 17.748 
729 9 1 16.047 18.782 19.536 
730 9 1 17.334 17.733 21.613 
731 9 1 18.750 16.589 23.497 
732 9 1 19.211 15.880 25.691 
733 9 1 18.945 15.703 28.212 
734 9 1 18.899 15.752 30.797 
735 9 1 17.321 14.254 32.207 
736 9 1 15.052 14.888 33.472 
737 9 1 12.570 15.317 34.095 
738 9 1 10.115 15.649 34.908 
739 9 1  8.075 16.446 36.352 
740 9 1  6.268 17.797 37.596 
741 9 1  4.593 19.562 37.773 
742 9 1  2.064 19.282 37.146 
743 9 1 -0.348 19.203 36.390 
744 9 1 -2.568 18.698 36.145 
745 9 1 49.774 17.867 35.485 
746 9 1 49.311 17.754 33.106 
747 9 1 48.944 17.665 30.491 
748 9 1 49.077 19.462 28.699 
749 9 1 49.822 21.033 26.752 
750 9 1 50.624 22.723 25.038 
751 9 1 51.270 24.550 23.390 
752 9 1 50.408 24.609 20.965 
753 10 1  6.740 13.298 24.930 
754 10 1  4.981 11.519 25.133 
755 10 1  3.556  9.331 24.975 
756 10 1  1.648  9.478 26.248 
757 10 1  1.472  7.743 27.955 
758 10 1  1.795  5.777 29.168 
759 10 1  2.966  4.225 30.841 
760 10 1  4.122 44.867 32.145 
761 10 1  5.835 44.995 34.038 
762 10 1  7.688 45.386 35.848 
763 10 1  9.571  3.201 37.618 
764 10 1 11.338  3.685 39.402 
765 10 1 12.781  4.280 41.441 
766 10 1 15.164  3.318 41.612 
767 10 1 17.480 44.883 41.644 
768 10 1 19.631 43.711 41.332 
769 10 1 21.298 42.024 40.428 
770 10 1 21.193 39.392 40.650 
771 10 1 21.327 36.847 41.012 
772 10 1 22.036 34.738 42.039 
773 10 1 23.193 33.280 43.872 
774 10 1 23.102 31.688 45.664 
775 10 1 21.384 31.640 47.739 
776 10 1 19.864 31.216 49.871 
777 10 1 19.444 31.236 -1.199 
778 10 1 19.845 31.565  1.273 
779 10 1 20.141 32.216  3.785 
780 10 1 19.413 32.277  6.117 
781 10 1 17.949 31.698  8.128 
782 10 1 16.670 30.916 10.236 
783 10 1 15.424 29.889 12.309 
784 10 1 14.477 27.573 12.949 
785 10 1 13.455 25.368 13.617 
786 10 1 12.454 23.024 14.267 
787 10 1 11.485 20.648 15.026 
788 10 1 11.003 19.944 17.419 
789 10 1 10.405 19.034 19.754 
790 10 1 10.306 16.816 21.166 
791 10 1 10.949 16.332 23.348 
792 10 1 12.283 17.238 25.112 
793 10 1 12.689 19.648 24.361 
794 10 1 12.999 21.927 23.357 
795 10 1 13.187 24.220 24.620 
796 10 1 14.062 25.998 25.889 
797 10 1 15.272 26.695 27.770 
798 10 1 17.368 25.674 28.099 
799 10 1 19.845 25.333 28.155 
800 10 1 21.941 24.688 29.123 
801 10 1 23.154 25.850 30.991 
802 10 1 22.916 25.486 33.620 
803 10 1 22.616 25.256 36.140 
804 10 1 22.451 25.365 38.702 
805 10 1 21.960 25.712 41.262 
806 10 1 21.303 26.302 43.731 
807 10 1 20.867 26.548 46.375 
808 10 1 20.616 26.670 48.988 
809 10 1 20.353 27.027 51.524 
810 10 1 19.760 27.307  0.602 
811 10 1 19.173 27.424  3.125 
812 10 1 20.302 26.230  5.112 
813 10 1 21.133 27.092  7.320 
814 10 1 21.454 28.138  9.518 
815 10 1 21.499 29.644 11.611 
816 10 1 21.344 31.258 13.726 
817 10 1 20.308 30.619 15.835 
818 10 1 18.428 32.005 17.024 
819 10 1 15.959 31.470 16.985 
820 10 1 13.512 30.841 17.056 
821 10 1 10.952 30.426 17.142 
822 10 1  8.495 29.809 17.150 
823 10 1  6.477 31.043 18.304 
824 10 1  5.242 32.764 19.010 
825 10 1  4.272 34.875 18.993 
826 10 1  3.107 36.940 18.921 
827 10 1  1.734 38.851 18.734 
828 10 1 -0.253 40.127 18.860 
829 10 1 -2.417 40.847 20.041 
830 10 1 49.839 41.118 21.163 
831 11 1  1.009 20.730 23.919 
832 11 1 -0.676 20.638 21.901 
833 11 1 -2.369 20.624 19.832 
834 11 1 50.294 20.341 18.235 
835 11 1 48.113 20.125 16.776 
836 11 1 45.594 20.240 17.402 
837 11 1 43.004 20.420 17.619 
838 11 1 40.411 20.319 17.415 
839 11 1 38.970 22.101 16.288 
840 11 1 36.492 22.655 16.573 
841 11 1 34.618 22.777 14.778 
842 11 1 32.525 22.801 13.245 
843 11 1 30.682 24.729 13.133 
844 11 1 29.933 26.793 13.790 
845 11 1 30.663 28.882 14.985 
846 11 1 32.170 28.747 16.672 
847 11 1 34.605 28.191 17.325 
848 11 1 37.084 27.412 17.391 
849 11 1 39.522 26.816 17.234 
850 11 1 41.357 25.884 18.074 
851 11 1 41.348 26.877 20.582 
852 11 1 41.186 25.887 23.057 
853 11 1 38.907 25.812 24.228 
854 11 1 37.977 23.977 25.836 
855 11 1 37.079 22.171 27.396 
856 11 1 36.266 20.294 29.036 
857 11 1 35.693 18.335 30.382 
858 11 1 35.104 16.472 32.088 
859 11 1 34.701 14.424 33.189 
860 11 1 33.018 12.951 31.827 
861 11 1 32.268 10.876 32.720 
862 11 1 30.682  9.291 33.977 
863 11 1 29.264  7.745 35.422 
864 11 1 26.691  7.798 35.759 
865 11 1 24.185  8.175 36.124 
866 11 1 22.383  9.399 37.663 
867 11 1 20.530 10.598 38.959 
868 11 1 18.480 11.622 40.187 
869 11 1 17.736 13.002 41.730 
870 11 1 18.842 12.797 43.987 
871 11 1 19.668 12.760 46.485 
872 11 1 20.413 12.837 48.976 
873 11 1 21.504 12.856 51.251 
874 11 1 21.652 14.914 -0.590 
875 11 1 22.881 14.692  1.290 
876 11 1 23.956 13.613  3.077 
877 11 1 26.192 12.778  4.198 
878 11 1 27.863 14.034  3.229 
879 11 1 29.103 15.547  1.361 
880 11 1 27.753 16.950 -0.419 
881 11 1 26.219 17.858 -2.240 
882 11 1 26.779 19.706 49.398 
883 11 1 27.693 21.642 47.845 
884 11 1 28.844 23.487 46.603 
885 11 1 29.746 25.551 46.336 
886 11 1 30.710 27.758 47.234 
887 11 1 29.627 29.758 48.256 
888 11 1 28.750 32.081 49.261 
889 11 1 27.897 34.447 48.886 
890 11 1 26.214 36.052 48.525 
891 11 1 23.840 37.058 48.634 
892 11 1 23.264 37.402 50.993 
893 11 1 22.732 37.353 -0.133 
894 11 1 21.468 36.702  2.001 
895 11 1 20.925 36.730  4.259 
896 11 1 21.390 38.166  6.379 
897 11 1 21.692 39.577  8.608 
898 11 1 22.128 40.655 10.878 
899 11 1 22.690 41.868 13.133 
900 11 1 24.121 43.740 12.544 
901 11 1 25.544 44.433 10.588 
902 11 1 25.977 44.734  8.116 
903 11 1 26.311 44.879  5.558 
904 11 1 26.492 45.640  3.255 
905 11 1 26.747  4.522  1.221 
906 11 1 27.840  5.884 -0.452 
907 11 1 29.628  6.204 -1.929 
908 11 1 31.217  5.720 49.506 
909 12 1 40.295  7.070  7.586 
910 12 1 40.779  7.532  5.329 
911 12 1 42.391  7.627  3.599 
912 12 1 44.302  6.510  2.203 
913 12 1 46.408  5.511  1.303 
914 12 1 48.308  4.260  0.233 
915 12 1 50.346  3.043 -0.764 
916 12 1 51.777 44.791 -2.483 
917 12 1 -1.342 44.933 48.709 
918 12 1 -1.625  3.679 46.484 
919 12 1 -0.334  5.745 45.464 
920 12 1  0.880  7.808 44.460 
921 12 1  2.780  8.633 43.384 
922 12 1  5.265  8.667 42.672 
923 12 1  6.995  6.884 43.285 
924 12 1  8.518  5.131 44.245 
925 12 1 10.652  5.121 45.643 
926 12 1 12.866  4.809 47.047 
927 12 1 14.303  5.203 48.790 
928 12 1 14.995  6.123 51.052 
929 12 1 15.299  7.400 -0.127 
930 12 1 15.476  8.677  2.139 
931 12 1 13.618 10.227  2.978 
932 12 1 12.557 12.247  2.620 
933 12 1 11.396 13.811  1.347 
934 12 1 10.705 13.571 -1.076 
935 12 1  9.920 13.622 49.819 
936 12 1  9.180 13.806 47.327 
937 12 1  6.710 14.588 46.586 
938 12 1  4.419 13.638 45.469 
939 12 1  2.350 12.670 45.572 
940 12 1  0.317 11.739 46.953 
941 12 1 -1.797 10.718 47.900 
942 12 1 51.493  8.893 48.410 
943 12 1 50.280  6.990 48.267 
944 12 1 48.385  5.658 47.290 
945 12 1 48.461  4.799 44.888 
946 12 1 48.531  4.173 42.355 
947 12 1 46.530  3.918 40.745 
948 12 1 44.555  3.528 39.087 
949 12 1 42.711  3.173 37.311 
950 12 1 42.564  3.885 34.877 
951 12 1 42.279  5.344 33.033 
952 12 1 40.076  6.520 32.583 
953 12 1 37.917  7.856 32.268 
954 12 1 35.695  8.152 31.838 
955 12 1 34.325  6.553 33.361 
956 12 1 32.798  5.032 34.768 
957 12 1 30.979  3.626 35.874 
958 12 1 29.034 44.613 36.483 
959 12 1 27.181 42.877 37.019 
960 12 1 27.030 40.274 37.226 
961 12 1 24.941 39.093 38.077 
962 12 1 23.200 37.601 36.815 
963 12 1 21.309 36.414 35.470 
964 12 1 19.690 35.149 33.857 
965 12 1 18.021 34.291 32.117 
966 12 1 15.505 34.080 32.447 
967 12 1 14.104 31.888 32.411 
968 12 1 11.675 31.906 33.544 
969 12 1 10.145 32.857 34.903 
970 12 1  9.118 33.932 37.163 
971 12 1  7.665 34.783 39.075 
972 12 1  5.702 35.702 40.177 
973 12 1  3.285 35.836 40.396 
974 12 1  0.922 35.952 40.151 
975 12 1 -1.240 37.136 39.474 
976 12 1 -2.118 36.288 37.531 
977 12 1 -3.559 35.437 35.996 
978 12 1 48.754 35.302 34.704 
979 12 1 46.506 34.978 33.349 
980 12 1 44.332 34.595 32.230 
981 12 1 42.627 34.511 30.610 
982 12 1 41.589 34.832 28.243 
983 12 1 40.601 34.142 26.293 
984 12 1 39.383 32.254 25.085 
985 12 1 38.006 30.397 23.889 
986 12 1 36.045 29.304 23.023 