LAMMPS data file generated by aa2cg.

2000 atoms
1 atom types
1975 bonds
1 bond types
1950 angles
1 angle types
1925 dihedrals
1 dihedral types

 0.000 51.670 xlo xhi
 0.000 36.729 ylo yhi
 0.000 64.474 zlo zhi

Masses

1 24.022

Atoms # molecular

1 1 1 38.101 26.432 49.881 
2 1 1  9.723 36.750  1.968 
3 2 1 49.312 25.643 16.010 
4 2 1 40.804 36.591 35.207 
5 3 1 50.217 30.635  7.958 
6 3 1 24.487 35.437 -3.998 
7 4 1  1.933 23.554 30.475 
8 4 1 16.498 20.053 18.315 
9 5 1 24.967 20.001 24.346 
10 5 1 26.946 24.419 53.673 
11 6 1 14.385 13.562 48.868 
12 6 1 21.839 36.320 -0.388 
13 7 1 33.797 11.981 49.351 
14 7 1 13.675 22.501  0.540 
15 8 1 33.368 35.975 -3.246 
16 8 1  6.352 14.124 31.472 
17 9 1 20.137 15.789 17.089 
18 9 1  8.339 20.704 51.759 
19 10 1 19.489 34.550 22.657 
20 10 1 17.062 23.508 13.865 
21 11 1  1.038 36.317 45.690 
22 11 1 -0.314 36.540  1.467 
23 12 1 36.283 33.945 12.906 
24 12 1 37.011 13.020 -7.171 
25 13 1 44.975 24.909 46.304 
26 13 1 38.098 36.384 47.073 
27 14 1 17.839 22.618  9.257 
28 14 1 -0.362 27.521 27.625 
29 15 1 43.094 35.677 40.545 
30 15 1 45.696 23.819 -4.124 
31 16 1 24.122 14.086 46.739 
32 16 1 29.514 26.609 16.077 
33 17 1  1.129 25.674 38.106 
34 17 1 28.184 13.140 57.176 
35 18 1  9.626 16.883  8.603 
36 18 1 11.663  7.948 14.189 
37 19 1 41.100 31.963 32.919 
38 19 1 36.500 31.108 21.518 
39 20 1  5.511 21.392 -0.312 
40 20 1 31.616 18.911 44.142 
41 21 1 27.379 29.072 41.759 
42 21 1 21.233 19.448 53.298 
43 22 1  0.721 30.184 47.072 
44 22 1 23.256 23.004 40.083 
45 23 1 21.876 20.617  2.720 
46 23 1 24.601 16.790 20.459 
47 24 1 32.454 36.968 31.022 
48 24 1 45.945 18.908 -6.749 
49 25 1 13.821 22.246 22.406 
50 25 1 20.043 37.750  6.365 
51 1 1 35.654 26.926 49.547 
52 1 1 33.287 27.693 49.295 
53 1 1 31.024 27.739 49.961 
54 1 1 29.429 28.243 51.481 
55 1 1 27.572 29.197 52.386 
56 1 1 24.959 29.329 52.374 
57 1 1 22.420 29.286 52.049 
58 1 1 21.269 29.193 49.736 
59 1 1 20.658 29.426 47.470 
60 1 1 20.712 30.520 45.178 
61 1 1 20.999 31.756 42.954 
62 1 1 21.530 31.891 40.751 
63 1 1 22.347 31.109 38.362 
64 1 1 22.594 30.601 35.824 
65 1 1 23.242 30.768 33.283 
66 1 1 23.890 31.043 30.834 
67 1 1 24.889 31.153 28.446 
68 1 1 25.959 30.892 26.043 
69 1 1 26.462 30.685 23.498 
70 1 1 26.983 30.870 21.024 
71 1 1 27.553 31.447 18.646 
72 1 1 28.209 31.995 16.164 
73 1 1 29.177 32.636 13.886 
74 1 1 30.486 32.706 11.697 
75 1 1 31.847 32.591  9.618 
76 1 1 33.280 32.686  7.477 
77 1 1 34.735 33.096  5.420 
78 1 1 36.779 33.597  4.403 
79 1 1 39.276 33.847  4.137 
80 1 1 41.799 34.034  4.289 
81 1 1 43.341 32.176  5.254 
82 1 1 45.162 32.469  7.159 
83 1 1 45.690 32.809  9.400 
84 1 1 46.081 33.471 11.629 
85 1 1 46.675 34.872 13.468 
86 1 1 46.306 36.984 14.783 
87 1 1 46.045 39.165 16.098 
88 1 1 45.297 41.386 17.164 
89 1 1 46.970 43.281 17.859 
90 1 1 48.872  8.282 18.659 
91 1 1 -0.528  9.634 19.256 
92 1 1  0.968 11.200 17.815 
93 1 1  1.523 12.296 15.855 
94 1 1  0.931 13.400 13.592 
95 1 1  0.335 14.451 11.311 
96 1 1 -1.616 16.051 10.922 
97 1 1 48.294 17.824 10.415 
98 1 1 46.992 19.962  9.861 
99 1 1 44.846 20.699  8.665 
100 1 1 44.780 22.429  6.745 
101 1 1 44.888 24.624  7.456 
102 1 1 44.976 26.702  8.329 
103 1 1 43.911 28.772  9.512 
104 1 1 44.148 29.347 11.817 
105 1 1 45.478 29.423 13.979 
106 1 1 47.016 29.064 15.955 
107 1 1 48.807 30.319 17.372 
108 1 1 -0.319 29.771 17.224 
109 1 1  2.193 29.139 17.086 
110 1 1  4.692 28.473 16.686 
111 1 1  6.253 27.086 18.193 
112 1 1  6.607 25.379 19.671 
113 1 1  5.579 23.400 21.095 
114 1 1  5.327 21.305 22.169 
115 1 1  6.520 19.088 22.705 
116 1 1  6.252 16.825 21.400 
117 1 1  5.897 14.682 19.907 
118 1 1  5.644 12.369 18.735 
119 1 1  5.691  9.998 17.695 
120 1 1  5.554  7.667 16.804 
121 1 1  4.928 42.751 15.118 
122 1 1  6.649  5.497 13.733 
123 1 1  8.715 41.059 12.970 
124 1 1 10.604 39.745 11.929 
125 1 1 12.351 38.371 10.566 
126 1 1 12.624 37.386  8.302 
127 1 1 12.201 37.179  5.824 
128 1 1 11.955 36.626  3.332 
129 2 1 47.522 24.630 17.330 
130 2 1 45.723 23.002 17.883 
131 2 1 43.734 21.338 18.105 
132 2 1 41.933 19.547 18.453 
133 2 1 41.332 18.409 20.649 
134 2 1 41.071 17.104 22.812 
135 2 1 41.167 15.631 24.887 
136 2 1 39.519 13.733 25.709 
137 2 1 37.913 11.810 26.480 
138 2 1 36.461 10.109 27.775 
139 2 1 36.206  7.991 26.789 
140 2 1 35.729  8.078 24.248 
141 2 1 34.930  8.116 21.772 
142 2 1 32.365  8.418 21.015 
143 2 1 29.888  8.974 20.313 
144 2 1 27.717  9.933 20.900 
145 2 1 25.984 10.964 22.483 
146 2 1 24.200 11.942 24.016 
147 2 1 22.701 13.412 25.471 
148 2 1 21.300 12.835 27.619 
149 2 1 19.896 12.134 29.580 
150 2 1 18.229 11.349 31.362 
151 2 1 16.414  9.961 31.856 
152 2 1 14.756  9.824 29.831 
153 2 1 15.509  9.457 27.683 
154 2 1 16.864  9.168 25.824 
155 2 1 17.804  7.996 23.748 
156 2 1 18.373  6.873 21.353 
157 2 1 16.501  5.778 20.016 
158 2 1 14.545 41.375 18.894 
159 2 1 12.570 40.140 17.801 
160 2 1 10.320 39.421 17.655 
161 2 1  7.859 39.105 18.327 
162 2 1  5.407 38.576 18.915 
163 2 1  3.016 37.965 19.571 
164 2 1  2.170 37.973 22.089 
165 2 1  1.306 38.110 24.528 
166 2 1 -0.931 37.215 24.781 
167 2 1 -1.487 34.767 24.320 
168 2 1 49.896 34.422 22.040 
169 2 1  0.521 33.702 20.970 
170 2 1  2.681 33.304 19.793 
171 2 1  5.022 33.280 18.744 
172 2 1  5.772 32.725 16.305 
173 2 1  6.722 31.829 14.060 
174 2 1  8.927 32.273 12.724 
175 2 1 11.091 32.577 11.300 
176 2 1 13.027 33.150  9.708 
177 2 1 13.494 32.057  7.339 
178 2 1 14.288 30.933  5.142 
179 2 1 15.374 29.589  3.189 
180 2 1 16.395 28.559  1.017 
181 2 1 16.310 27.677 -1.261 
182 2 1 15.824 25.996 -2.833 
183 2 1 16.133 23.933 -4.375 
184 2 1 16.446 22.400 -6.494 
185 2 1 17.212 23.242 55.974 
186 2 1 17.106 24.704 53.871 
187 2 1 16.867 26.358 51.902 
188 2 1 16.445 28.091 50.057 
189 2 1 16.164 29.630 48.098 
190 2 1 16.182 31.440 46.382 
191 2 1 16.356 33.438 44.796 
192 2 1 14.667 35.428 44.326 
193 2 1 14.076 37.750 44.305 
194 2 1 16.107 38.832 45.566 
195 2 1 18.182 38.893 46.550 
196 2 1 20.519 38.650 47.085 
197 2 1 23.044 39.086 47.593 
198 2 1 25.403 39.610 48.620 
199 2 1 27.053 39.000 47.235 
200 2 1 28.050 37.344 45.670 
201 2 1 29.519 35.714 44.234 
202 2 1 31.432 35.264 42.733 
203 2 1 33.331 35.562 41.102 
204 2 1 35.418 35.777 39.667 
205 2 1 37.241 36.051 37.932 
206 2 1 39.707 36.585 37.613 
207 3 1 -1.095 32.923  7.793 
208 3 1 -1.234 35.248  6.793 
209 3 1 50.233 37.728  5.884 
210 3 1 49.342 40.008  4.864 
211 3 1 48.017 41.959  3.995 
212 3 1 48.066 42.865  1.649 
213 3 1 46.393 42.567 -0.256 
214 3 1 44.586 42.428 -1.930 
215 3 1 42.852 42.159 -3.863 
216 3 1 41.573 41.649 -6.089 
217 3 1 40.701 40.857 -8.258 
218 3 1 39.739 39.392 54.627 
219 3 1 38.827 37.405 53.309 
220 3 1 37.886 35.532 51.924 
221 3 1 37.440 33.137 52.787 
222 3 1 36.687 30.738 53.397 
223 3 1 35.314 28.603 53.440 
224 3 1 33.821 26.562 53.841 
225 3 1 31.983 24.884 54.165 
226 3 1 30.602 22.679 54.418 
227 3 1 29.159 20.481 54.621 
228 3 1 27.631 18.883 55.470 
229 3 1 26.716 18.373 -6.955 
230 3 1 26.531 18.334 -4.401 
231 3 1 26.313 17.637 -1.942 
232 3 1 27.174 18.838  0.206 
233 3 1 26.719 18.547  2.466 
234 3 1 26.296 20.260  4.218 
235 3 1 26.325 22.524  4.586 
236 3 1 27.291 24.875  4.283 
237 3 1 27.051 26.254  2.112 
238 3 1 26.646 27.342 -0.178 
239 3 1 25.989 28.456 -2.330 
240 3 1 25.093 28.503 -4.543 
241 3 1 24.037 27.401 -6.740 
242 3 1 22.817 26.174 55.760 
243 3 1 21.741 25.012 53.723 
244 3 1 21.638 24.485 51.350 
245 3 1 22.253 24.846 48.920 
246 3 1 22.728 25.357 46.472 
247 3 1 22.859 26.335 44.124 
248 3 1 22.601 27.206 41.651 
249 3 1 24.147 26.895 39.588 
250 3 1 25.988 26.532 37.804 
251 3 1 26.213 27.626 35.496 
252 3 1 27.543 27.531 33.323 
253 3 1 28.873 27.720 31.156 
254 3 1 30.288 27.681 29.056 
255 3 1 31.420 27.521 26.821 
256 3 1 31.333 29.032 24.756 
257 3 1 31.410 30.811 22.887 
258 3 1 31.521 32.993 22.074 
259 3 1 31.246 35.438 22.674 
260 3 1 31.050 37.948 23.405 
261 3 1 32.440 38.897 25.316 
262 3 1 32.218 41.277 26.414 
263 3 1 31.619  6.882 27.518 
264 3 1 30.513  6.565 29.528 
265 3 1 28.875 41.707 30.751 
266 3 1 26.657 42.475 31.711 
267 3 1 25.036 41.092 33.057 
268 3 1 23.324 39.959 34.559 
269 3 1 22.448 40.079 36.847 
270 3 1 21.687 40.683 39.129 
271 3 1 20.620 41.807 41.122 
272 3 1 19.824 42.776 43.385 
273 3 1 18.963  6.827 45.634 
274 3 1 18.063  7.256 47.983 
275 3 1 17.100  7.982 50.227 
276 3 1 17.421  8.920 52.380 
277 3 1 18.783  9.373 54.489 
278 3 1 21.337  9.553 54.845 
279 3 1 23.797  9.471 55.401 
280 3 1 25.162  9.216 -6.900 
281 3 1 25.498  7.946 -5.027 
282 3 1 25.397  5.582 -3.974 
283 3 1 25.330 39.908 -3.149 
284 3 1 25.269 37.804 -4.610 
285 4 1  0.194 22.944 32.250 
286 4 1 49.937 23.266 33.351 
287 4 1 47.706 24.313 33.958 
288 4 1 46.683 26.499 32.909 
289 4 1 45.768 28.576 31.596 
290 4 1 45.735 29.991 29.833 
291 4 1 48.063 31.011 29.477 
292 4 1 50.114 32.389 28.907 
293 4 1  0.115 31.770 27.049 
294 4 1  1.499 31.139 24.976 
295 4 1  2.025 29.352 23.620 
296 4 1  0.117 27.607 23.245 
297 4 1 49.915 26.569 22.360 
298 4 1 47.773 25.947 21.811 
299 4 1 46.024 24.277 21.910 
300 4 1 46.250 22.004 23.223 
301 4 1 45.759 20.254 24.668 
302 4 1 44.263 18.947 26.424 
303 4 1 43.143 18.265 28.585 
304 4 1 41.542 17.786 30.544 
305 4 1 40.069 17.264 32.590 
306 4 1 38.742 17.072 34.839 
307 4 1 39.347 18.368 36.929 
308 4 1 39.494 20.722 36.991 
309 4 1 39.483 22.724 35.851 
310 4 1 39.238 22.651 33.186 
311 4 1 39.299 22.830 30.619 
312 4 1 39.659 22.971 28.025 
313 4 1 40.203 22.730 25.519 
314 4 1 40.661 22.468 22.997 
315 4 1 41.186 24.138 21.052 
316 4 1 39.570 25.242 19.334 
317 4 1 37.638 26.050 18.465 
318 4 1 35.048 26.215 18.317 
319 4 1 33.464 25.671 20.248 
320 4 1 31.974 24.649 22.070 
321 4 1 30.725 23.273 23.848 
322 4 1 30.408 21.626 25.725 
323 4 1 30.791 19.776 27.444 
324 4 1 30.687 18.498 29.400 
325 4 1 30.069 18.036 31.763 
326 4 1 29.234 17.855 34.249 
327 4 1 28.251 17.638 36.555 
328 4 1 27.621 18.507 38.573 
329 4 1 26.971 20.981 38.006 
330 4 1 28.269 22.240 36.585 
331 4 1 29.387 22.737 34.306 
332 4 1 30.986 22.972 32.367 
333 4 1 32.362 24.281 30.630 
334 4 1 33.554 23.462 28.522 
335 4 1 34.704 22.684 26.354 
336 4 1 35.848 22.161 24.126 
337 4 1 36.762 21.507 21.810 
338 4 1 37.349 20.614 19.328 
339 4 1 36.909 19.265 17.517 
340 4 1 35.487 17.679 16.124 
341 4 1 34.826 15.563 15.461 
342 4 1 33.717 13.919 17.196 
343 4 1 33.077 11.395 16.826 
344 4 1 32.462  8.843 16.515 
345 4 1 32.716  6.797 15.616 
346 4 1 34.084 41.820 14.198 
347 4 1 36.092 40.453 15.074 
348 4 1 38.136 41.665 15.053 
349 4 1 40.007  6.571 15.597 
350 4 1 41.922  8.133 16.218 
351 4 1 43.579  9.831 16.892 
352 4 1 45.519 11.464 17.559 
353 4 1 47.640 12.878 17.684 
354 4 1 48.990 14.511 16.663 
355 4 1 50.293 16.302 16.259 
356 4 1  0.846 17.566 16.533 
357 4 1  2.879 18.860 17.630 
358 4 1  4.908 20.222 17.581 
359 4 1  6.837 21.559 16.697 
360 4 1  9.203 21.631 16.311 
361 4 1 11.682 21.132 16.677 
362 4 1 14.100 20.609 17.478 
363 5 1 25.437 18.217 26.142 
364 5 1 25.318 17.354 28.420 
365 5 1 24.646 17.016 30.869 
366 5 1 24.121 17.198 33.384 
367 5 1 23.772 16.818 35.822 
368 5 1 23.147 16.842 38.286 
369 5 1 23.400 17.092 40.499 
370 5 1 24.914 17.478 42.499 
371 5 1 26.329 18.751 43.824 
372 5 1 26.435 21.210 43.083 
373 5 1 26.635 23.638 42.193 
374 5 1 29.011 24.592 41.578 
375 5 1 29.924 25.288 39.317 
376 5 1 30.782 26.391 37.148 
377 5 1 31.634 27.751 35.140 
378 5 1 32.480 29.093 33.102 
379 5 1 33.533 30.668 31.184 
380 5 1 34.879 31.922 29.446 
381 5 1 35.766 32.214 27.456 
382 5 1 34.388 33.435 25.921 
383 5 1 35.885 34.955 24.439 
384 5 1 36.291 35.965 22.413 
385 5 1 35.907 36.214 19.867 
386 5 1 36.889 36.054 17.865 
387 5 1 39.061 36.562 16.455 
388 5 1 41.153 37.398 15.084 
389 5 1 42.219 38.442 13.315 
390 5 1 42.994 38.710 11.162 
391 5 1 44.775 37.908  9.435 
392 5 1 45.693 37.094  7.427 
393 5 1 45.796 37.186  4.800 
394 5 1 46.387 37.374  2.208 
395 5 1 46.914 37.502 -0.308 
396 5 1 47.652 37.590 -2.730 
397 5 1 48.415 37.536 -5.179 
398 5 1 48.815 37.087 -7.755 
399 5 1 50.663 38.129 55.608 
400 5 1  1.408 38.674 54.889 
401 5 1  3.332 37.037 54.191 
402 5 1  5.675 36.859 55.436 
403 5 1  7.980 36.938 -7.850 
404 5 1 10.174 36.527 -6.621 
405 5 1 12.176 35.927 -5.187 
406 5 1 14.135 34.935 -3.879 
407 5 1 15.473 33.432 -2.536 
408 5 1 13.954 32.595 -0.650 
409 5 1 12.492 32.198  1.353 
410 5 1 10.554 31.178  2.345 
411 5 1  8.438 29.829  2.841 
412 5 1  6.261 28.554  3.346 
413 5 1  5.193 27.296  1.562 
414 5 1  4.988 26.351 -0.507 
415 5 1  6.001 25.024 -2.542 
416 5 1  6.980 23.375 -4.255 
417 5 1  7.617 22.071 -6.242 
418 5 1  8.556 23.588 -7.951 
419 5 1  9.470 24.349 54.258 
420 5 1 10.151 25.276 51.836 
421 5 1 10.708 26.533 49.586 
422 5 1 11.245 27.626 47.354 
423 5 1 11.790 28.834 45.093 
424 5 1 12.455 29.920 42.879 
425 5 1 13.014 31.220 40.778 
426 5 1 13.384 33.230 39.589 
427 5 1 14.744 35.041 39.246 
428 5 1 17.099 36.251 39.235 
429 5 1 19.125 36.395 40.803 
430 5 1 21.173 37.203 42.150 
431 5 1 23.269 37.118 43.604 
432 5 1 23.300 34.873 44.466 
433 5 1 24.817 34.526 46.311 
434 5 1 25.284 32.190 46.376 
435 5 1 25.861 29.934 46.276 
436 5 1 27.329 27.903 46.085 
437 5 1 28.285 25.787 46.479 
438 5 1 28.229 23.478 47.511 
439 5 1 26.946 23.075 49.696 
440 5 1 25.768 23.065 51.979 
441 6 1 16.577 12.671 47.859 
442 6 1 18.719 11.838 46.586 
443 6 1 20.511 10.926 44.994 
444 6 1 21.899 10.100 42.917 
445 6 1 23.183  9.365 40.848 
446 6 1 24.313  8.721 38.571 
447 6 1 25.312  7.791 36.413 
448 6 1 27.090  8.907 34.880 
449 6 1 29.068  9.509 33.449 
450 6 1 30.849 10.350 31.792 
451 6 1 32.545 11.607 30.339 
452 6 1 32.529 11.860 27.673 
453 6 1 32.483 11.576 25.186 
454 6 1 34.323 12.564 23.460 
455 6 1 36.240 13.305 21.996 
456 6 1 38.130 13.801 20.326 
457 6 1 40.165 14.493 18.771 
458 6 1 42.372 15.176 17.520 
459 6 1 44.422 15.750 16.169 
460 6 1 44.680 18.024 14.982 
461 6 1 47.032 19.115 14.716 
462 6 1 49.307 20.285 14.860 
463 6 1 50.815 21.393 13.077 
464 6 1  0.588 22.601 11.397 
465 6 1  2.275 23.527 12.819 
466 6 1  3.270 23.464 15.232 
467 6 1  2.049 23.846 17.469 
468 6 1  0.515 23.333 19.047 
469 6 1 -0.880 21.683 20.657 
470 6 1 49.246 19.997 19.671 
471 6 1 47.324 18.321 19.147 
472 6 1 46.187 16.479 20.635 
473 6 1 45.212 14.864 22.320 
474 6 1 43.549 13.016 21.720 
475 6 1 41.885 11.124 20.932 
476 6 1 39.968  9.616 20.195 
477 6 1 37.818  8.722 19.116 
478 6 1 37.136  9.540 16.778 
479 6 1 36.362  9.713 14.283 
480 6 1 36.254 10.441 12.035 
481 6 1 36.302 12.396 10.358 
482 6 1 37.481 14.578 10.138 
483 6 1 38.581 16.868  9.788 
484 6 1 39.297 19.173  9.203 
485 6 1 40.502 21.420  8.653 
486 6 1 40.329 23.651  9.916 
487 6 1 39.732 25.937 11.009 
488 6 1 38.918 27.388 12.635 
489 6 1 38.430 28.526 14.678 
490 6 1 38.843 30.347 16.365 
491 6 1 39.627 32.214 18.079 
492 6 1 40.233 34.062 19.716 
493 6 1 40.507 35.917 21.570 
494 6 1 42.201 35.899 23.501 
495 6 1 44.023 35.950 25.260 
496 6 1 46.084 35.913 26.748 
497 6 1 46.042 35.609 29.046 
498 6 1 45.803 35.492 31.414 
499 6 1 46.231 35.941 33.866 
500 6 1 46.858 36.799 36.221 
501 6 1 47.482 36.743 38.520 
502 6 1 47.535 36.287 40.769 
503 6 1 47.447 36.572 43.348 
504 6 1 47.520 38.858 44.506 
505 6 1 47.678 41.239 45.449 
506 6 1 47.507 41.999 47.866 
507 6 1 47.631 42.657 50.336 
508 6 1 49.750 42.482 51.765 
509 6 1  0.330 42.363 53.061 
510 6 1  2.722 42.092 53.860 
511 6 1  5.068 41.425 54.844 
512 6 1  7.455 41.413 55.811 
513 6 1  9.770 41.318 56.933 
514 6 1 11.953 40.675 -6.314 
515 6 1 14.117 39.708 -5.189 
516 6 1 16.370 38.925 -4.152 
517 6 1 18.654 37.974 -3.212 
518 6 1 21.022 37.144 -2.612 
519 7 1 35.624 13.666 50.008 
520 7 1 37.919 13.959 50.841 
521 7 1 38.707 13.009 53.117 
522 7 1 41.157 13.109 53.902 
523 7 1 43.403 13.340 55.113 
524 7 1 45.611 13.893 56.544 
525 7 1 47.953 14.349 -6.764 
526 7 1 49.580 12.525 -5.888 
527 7 1 -0.162 10.869 -5.481 
528 7 1  2.025  9.582 -5.015 
529 7 1  3.772  7.809 -4.324 
530 7 1  4.577  5.694 -4.031 
531 7 1  4.002 39.853 -3.802 
532 7 1  3.135 37.512 -3.475 
533 7 1  2.303 35.451 -4.203 
534 7 1  1.833 33.725 -6.058 
535 7 1  0.283 33.543 -8.158 
536 7 1 -1.592 33.259 55.143 
537 7 1 47.633 32.303 54.955 
538 7 1 45.406 30.983 54.628 
539 7 1 43.236 29.638 54.352 
540 7 1 41.048 28.598 54.069 
541 7 1 40.401 26.287 55.076 
542 7 1 37.990 25.444 54.941 
543 7 1 36.956 23.436 53.566 
544 7 1 36.809 20.857 53.904 
545 7 1 36.727 18.265 54.121 
546 7 1 34.626 16.739 54.674 
547 7 1 33.332 15.886 56.467 
548 7 1 32.196 15.863 -5.730 
549 7 1 31.922 17.849 -4.524 
550 7 1 31.476 20.353 -4.960 
551 7 1 32.209 22.593 -5.347 
552 7 1 33.960 24.508 -5.348 
553 7 1 35.642 26.517 -5.370 
554 7 1 37.195 28.494 -5.576 
555 7 1 39.098 30.183 -6.158 
556 7 1 40.990 31.911 -6.431 
557 7 1 43.050 33.408 -6.851 
558 7 1 45.403 33.495 -5.472 
559 7 1 47.663 33.029 -4.190 
560 7 1 49.723 32.547 -2.690 
561 7 1 -0.161 32.008 -0.946 
562 7 1  1.253 31.134  0.931 
563 7 1  1.939 30.981  3.130 
564 7 1  2.321 31.784  5.546 
565 7 1  3.517 32.519  7.704 
566 7 1  4.087 32.337 10.013 
567 7 1  2.136 31.554 11.541 
568 7 1  0.506 32.017 13.195 
569 7 1 -0.911 33.924 14.199 
570 7 1 -0.079 34.525 16.278 
571 7 1 50.295 35.317 18.032 
572 7 1 49.451 37.253 19.600 
573 7 1 50.522 39.579 19.522 
574 7 1  0.146 41.854 20.019 
575 7 1  1.917  6.959 20.628 
576 7 1  3.415  9.046 21.096 
577 7 1  2.727 11.105 22.568 
578 7 1  4.036 13.060 23.637 
579 7 1  5.505 14.748 24.914 
580 7 1  7.185 16.233 26.211 
581 7 1  6.473 18.452 27.183 
582 7 1  5.716 20.816 27.735 
583 7 1  6.428 23.104 26.767 
584 7 1  6.796 25.543 25.915 
585 7 1  6.397 27.024 24.275 
586 7 1  6.054 28.802 22.863 
587 7 1  6.385 30.550 21.331 
588 7 1  8.782 30.258 20.561 
589 7 1  9.818 30.416 18.201 
590 7 1 11.009 29.929 15.919 
591 7 1 11.926 29.186 13.580 
592 7 1 12.577 28.119 11.334 
593 7 1 12.962 27.050  9.034 
594 7 1 13.287 26.291  6.579 
595 7 1 13.743 25.327  4.309 
596 7 1 13.759 23.831  2.447 
597 8 1 31.214 35.964 -4.193 
598 8 1 30.086 33.629 -4.017 
599 8 1 28.180 33.038 -2.310 
600 8 1 26.164 32.258 -0.759 
601 8 1 24.440 31.342  1.070 
602 8 1 23.312 30.761  3.227 
603 8 1 22.458 30.847  5.645 
604 8 1 21.735 30.929  8.132 
605 8 1 22.915 31.587 10.447 
606 8 1 23.997 32.283 12.757 
607 8 1 24.571 32.929 15.111 
608 8 1 25.299 35.160 15.230 
609 8 1 26.785 37.125 14.505 
610 8 1 27.179 36.844 12.308 
611 8 1 27.208 36.094 10.029 
612 8 1 28.403 35.832  8.051 
613 8 1 30.032 35.636  6.333 
614 8 1 31.125 35.077  4.288 
615 8 1 32.369 37.195  3.163 
616 8 1 34.137 36.840  1.680 
617 8 1 36.589 36.539  1.014 
618 8 1 39.153 36.087  0.514 
619 8 1 41.520 36.421 -0.407 
620 8 1 43.097 36.871 -2.032 
621 8 1 43.435 37.369 -4.551 
622 8 1 44.011 37.443 -7.010 
623 8 1 44.632 37.315 55.026 
624 8 1 43.802 35.438 53.434 
625 8 1 42.632 33.717 51.913 
626 8 1 41.216 32.193 50.450 
627 8 1 39.965 30.557 48.797 
628 8 1 38.278 31.813 47.592 
629 8 1 35.963 31.812 48.737 
630 8 1 33.742 32.038 50.073 
631 8 1 32.001 32.246 51.960 
632 8 1 30.378 32.425 54.012 
633 8 1 28.957 34.475 54.454 
634 8 1 28.803 36.101 56.514 
635 8 1 28.659 38.340 -6.938 
636 8 1 28.986 40.812 -6.611 
637 8 1 29.188 43.001 56.430 
638 8 1 27.493  6.839 54.787 
639 8 1 25.929  6.855 52.687 
640 8 1 23.737 43.240 51.671 
641 8 1 21.521  5.733 51.141 
642 8 1 20.866 40.699 52.891 
643 8 1 19.295 38.718 52.333 
644 8 1 17.348 37.833 51.578 
645 8 1 15.309 37.582 50.115 
646 8 1 13.959 39.608 49.044 
647 8 1 12.462 41.414 48.041 
648 8 1 11.621  6.858 47.685 
649 8 1 13.684  8.476 47.441 
650 8 1 14.766  9.107 45.200 
651 8 1 16.161  9.862 43.063 
652 8 1 17.748  9.531 41.422 
653 8 1 17.059  8.487 39.171 
654 8 1 16.319  8.694 37.054 
655 8 1 14.718  9.327 35.674 
656 8 1 12.267  9.525 34.709 
657 8 1 10.755  9.995 33.018 
658 8 1 10.129 10.846 30.753 
659 8 1  9.911 11.788 28.327 
660 8 1  9.799 12.095 25.765 
661 8 1  9.702 12.086 23.238 
662 8 1  9.740 11.983 20.730 
663 8 1  9.832 11.922 18.154 
664 8 1  9.394 12.184 15.582 
665 8 1 11.186 13.159 14.414 
666 8 1 13.758 13.307 14.106 
667 8 1 14.768 14.174 16.062 
668 8 1 14.539 14.927 18.243 
669 8 1 14.005 14.854 20.801 
670 8 1 13.429 15.200 23.297 
671 8 1 12.427 16.254 25.354 
672 8 1 11.694 17.361 27.612 
673 8 1 10.064 16.313 29.306 
674 8 1  8.210 15.397 30.821 
675 9 1 19.275 14.209 18.880 
676 9 1 18.617 12.830 20.948 
677 9 1 17.845 13.396 23.457 
678 9 1 17.012 14.231 25.739 
679 9 1 16.056 14.646 28.039 
680 9 1 14.660 14.610 30.183 
681 9 1 13.075 14.553 32.216 
682 9 1 11.197 14.312 34.056 
683 9 1  9.143 13.676 35.508 
684 9 1  9.183 13.187 38.031 
685 9 1  7.696 11.500 39.259 
686 9 1  6.417  9.573 40.443 
687 9 1  7.351  7.544 41.562 
688 9 1  8.315  5.499 42.885 
689 9 1  9.622 40.330 43.938 
690 9 1  9.013 38.815 45.909 
691 9 1 10.396 36.738 46.776 
692 9 1 11.621 34.779 47.988 
693 9 1 13.026 33.596 49.694 
694 9 1 12.531 31.508 51.049 
695 9 1 12.484 29.248 52.323 
696 9 1 11.594 29.150 54.494 
697 9 1 10.723 30.230 56.300 
698 9 1 10.081 32.315 55.295 
699 9 1  9.242 33.575 53.272 
700 9 1  7.912 34.384 51.254 
701 9 1  6.561 35.316 49.283 
702 9 1  5.572 36.191 47.088 
703 9 1  5.290 37.444 44.812 
704 9 1  5.028 38.837 42.773 
705 9 1  5.008 40.129 40.560 
706 9 1  5.525 41.268 38.329 
707 9 1  5.822 42.937 36.714 
708 9 1  5.842  8.591 35.790 
709 9 1  5.576 10.723 34.468 
710 9 1  3.391 11.964 33.842 
711 9 1  1.120 12.336 33.240 
712 9 1 -1.342 12.078 32.779 
713 9 1 47.892 11.357 32.258 
714 9 1 45.831 10.053 31.509 
715 9 1 44.095  8.425 30.558 
716 9 1 42.078  6.863 29.836 
717 9 1 40.179  7.357 31.037 
718 9 1 38.020  7.838 31.552 
719 9 1 35.633  7.385 32.105 
720 9 1 33.687  6.784 33.358 
721 9 1 31.964  5.886 34.999 
722 9 1 30.297 41.699 36.778 
723 9 1 28.785 40.942 38.781 
724 9 1 27.482 40.512 40.869 
725 9 1 25.924 40.965 42.634 
726 9 1 24.576 42.336 44.238 
727 9 1 23.496  7.023 46.069 
728 9 1 24.632  8.937 47.235 
729 9 1 26.329 10.393 47.532 
730 9 1 28.511 11.475 46.603 
731 9 1 30.637 12.500 45.556 
732 9 1 32.224 14.162 45.620 
733 9 1 33.691 15.910 46.852 
734 9 1 35.465 17.533 47.666 
735 9 1 37.422 18.958 48.396 
736 9 1 37.598 21.633 48.490 
737 9 1 35.945 22.536 49.681 
738 9 1 33.475 23.112 50.139 
739 9 1 32.287 21.104 50.028 
740 9 1 31.499 18.746 50.446 
741 9 1 30.771 16.352 50.868 
742 9 1 30.095 13.959 51.529 
743 9 1 28.386 12.359 51.563 
744 9 1 25.935 11.509 51.124 
745 9 1 23.592 10.714 50.793 
746 9 1 21.573 12.249 50.917 
747 9 1 20.257 13.862 51.709 
748 9 1 19.256 15.717 52.840 
749 9 1 16.645 16.193 52.764 
750 9 1 14.054 16.613 52.275 
751 9 1 11.549 17.229 52.154 
752 9 1  9.141 18.220 52.232 
753 10 1 17.488 35.220 23.728 
754 10 1 16.910 33.856 25.792 
755 10 1 14.962 34.301 27.452 
756 10 1 13.064 35.472 28.086 
757 10 1 11.170 37.184 28.083 
758 10 1  9.003 37.912 27.523 
759 10 1  6.765 38.204 27.709 
760 10 1  4.587 38.751 28.930 
761 10 1  2.241 39.029 30.025 
762 10 1 -0.059 38.476 30.493 
763 10 1 -0.394 36.484 32.100 
764 10 1 -0.886 34.852 34.016 
765 10 1 -1.754 32.454 33.629 
766 10 1 49.030 30.690 35.344 
767 10 1 46.890 29.680 36.387 
768 10 1 44.713 29.623 37.302 
769 10 1 42.680 30.830 38.209 
770 10 1 40.785 32.057 39.392 
771 10 1 39.097 32.812 41.192 
772 10 1 37.283 32.794 42.598 
773 10 1 35.381 32.231 44.232 
774 10 1 33.261 32.075 45.526 
775 10 1 31.018 32.033 46.681 
776 10 1 29.487 32.992 48.389 
777 10 1 28.447 34.803 49.810 
778 10 1 27.372 36.683 51.167 
779 10 1 26.502 38.459 52.722 
780 10 1 25.319 39.325 54.508 
781 10 1 23.538 39.932 55.856 
782 10 1 21.741 41.513 -7.828 
783 10 1 20.113 42.426 -6.373 
784 10 1 19.072 42.159 -3.993 
785 10 1 18.447 42.529 -1.534 
786 10 1 17.954  6.312  0.896 
787 10 1 19.010  8.088  2.538 
788 10 1 17.540  8.686  4.225 
789 10 1 15.213  9.560  4.987 
790 10 1 12.843 10.224  5.632 
791 10 1 11.078 10.853  6.865 
792 10 1  9.970 11.503  9.033 
793 10 1  9.051 10.709 11.066 
794 10 1  7.488 10.008 12.864 
795 10 1  4.932 10.196 12.715 
796 10 1  2.903  9.924 11.806 
797 10 1  0.849  9.989 10.402 
798 10 1 -1.410 10.697  9.352 
799 10 1 48.038 11.505  8.222 
800 10 1 47.535 13.545  6.826 
801 10 1 47.942 15.273  5.385 
802 10 1 49.242 16.619  3.577 
803 10 1 -0.264 16.021  2.320 
804 10 1  1.918 15.509  1.137 
805 10 1  4.527 15.820  1.330 
806 10 1  6.169 17.055 -0.386 
807 10 1  7.602 16.000 -2.306 
808 10 1  9.004 17.198 -4.123 
809 10 1  8.732 17.825 -6.290 
810 10 1  7.033 18.343 -8.154 
811 10 1  5.346 18.912 54.532 
812 10 1  3.374 19.417 52.727 
813 10 1  1.571 20.823 51.893 
814 10 1 -0.048 21.612 53.872 
815 10 1 -1.261 22.404 56.086 
816 10 1 49.556 22.281 -6.162 
817 10 1 48.974 20.985 -4.015 
818 10 1 -0.985 20.317 -2.147 
819 10 1  0.317 20.303 -0.200 
820 10 1  1.262 21.677  1.876 
821 10 1  1.877 22.774  4.128 
822 10 1  2.377 24.643  5.412 
823 10 1  3.864 26.353  6.170 
824 10 1  3.377 27.749  8.330 
825 10 1  2.808 26.761 10.683 
826 10 1  4.620 26.462 12.228 
827 10 1  7.033 25.800 12.922 
828 10 1  9.502 25.355 13.220 
829 10 1 11.951 24.640 13.613 
830 10 1 14.611 24.213 13.674 
831 11 1  0.541 36.873 43.419 
832 11 1  0.184 36.684 40.904 
833 11 1  0.547 37.238 38.642 
834 11 1  1.678 38.196 36.561 
835 11 1  3.132 39.093 34.744 
836 11 1  5.451 39.370 33.536 
837 11 1  7.874 39.428 32.688 
838 11 1  9.912 38.447 31.893 
839 11 1 11.881 37.230 32.996 
840 11 1 13.738 35.936 34.282 
841 11 1 14.261 34.087 32.959 
842 11 1 14.227 32.391 31.489 
843 11 1 12.908 30.173 31.579 
844 11 1 10.347 29.877 32.048 
845 11 1  7.769 29.746 32.016 
846 11 1  6.351 29.362 29.801 
847 11 1  5.428 30.290 27.942 
848 11 1  5.592 32.164 26.308 
849 11 1  5.440 33.984 24.563 
850 11 1  6.379 34.994 22.708 
851 11 1  8.062 35.105 20.743 
852 11 1  9.754 35.068 18.737 
853 11 1 11.519 35.080 16.955 
854 11 1 13.296 35.015 15.100 
855 11 1 15.203 33.306 15.237 
856 11 1 16.181 32.059 13.184 
857 11 1 16.912 30.749 11.141 
858 11 1 17.276 29.316  8.978 
859 11 1 17.459 27.696  7.002 
860 11 1 17.868 26.024  5.109 
861 11 1 18.318 24.682  2.971 
862 11 1 18.664 23.290  0.794 
863 11 1 19.326 21.936 -1.367 
864 11 1 21.883 21.977 -1.433 
865 11 1 24.397 22.447 -1.192 
866 11 1 26.967 22.736 -1.001 
867 11 1 29.573 22.831 -0.977 
868 11 1 30.919 22.223  1.260 
869 11 1 31.728 21.311  3.569 
870 11 1 32.559 22.901  5.104 
871 11 1 31.017 23.571  7.001 
872 11 1 29.312 23.874  8.846 
873 11 1 28.206 23.581 10.861 
874 11 1 28.195 22.367 13.123 
875 11 1 29.644 20.459 13.836 
876 11 1 30.495 18.313 13.778 
877 11 1 30.855 15.940 12.789 
878 11 1 30.694 13.464 12.174 
879 11 1 30.281 10.910 11.858 
880 11 1 30.894  8.705 11.427 
881 11 1 32.601  6.907 10.531 
882 11 1 34.188 41.869  9.612 
883 11 1 36.767 42.138  9.262 
884 11 1 39.270 42.704  8.937 
885 11 1 41.960 42.528  8.525 
886 11 1 44.489 41.962  8.354 
887 11 1 46.738 42.583  8.406 
888 11 1 48.944  6.260  8.881 
889 11 1 -0.388 42.419  9.827 
890 11 1  2.028 41.761 10.416 
891 11 1  4.355 41.575 10.000 
892 11 1  5.125  6.917  8.641 
893 11 1  5.237  8.970  7.081 
894 11 1  6.043 10.826  5.437 
895 11 1  7.036 12.762  4.766 
896 11 1  7.838 15.119  5.132 
897 11 1  6.575 17.393  5.324 
898 11 1  5.053 19.423  5.864 
899 11 1  5.900 21.345  6.909 
900 11 1  7.250 23.518  7.443 
901 11 1  8.271 25.927  7.916 
902 11 1  8.044 27.898  8.842 
903 11 1  7.419 30.116  8.533 
904 11 1  8.303 32.371  7.337 
905 11 1  7.323 33.599  5.299 
906 11 1  6.218 34.914  3.287 
907 11 1  4.276 35.674  2.413 
908 11 1  1.724 36.189  2.431 
909 12 1 36.587 31.778 11.695 
910 12 1 37.130 30.473  9.877 
911 12 1 38.585 29.523  7.936 
912 12 1 39.965 29.047  5.702 
913 12 1 41.931 28.280  4.169 
914 12 1 43.898 27.694  2.690 
915 12 1 45.721 27.452  0.979 
916 12 1 47.799 27.595 -0.449 
917 12 1 49.694 27.022 -1.871 
918 12 1 -0.292 25.786 -3.499 
919 12 1  1.854 24.729 -4.624 
920 12 1  2.302 22.211 -4.895 
921 12 1  2.675 19.799 -5.104 
922 12 1  2.969 17.531 -4.425 
923 12 1  0.930 16.326 -3.541 
924 12 1 -1.251 15.519 -2.504 
925 12 1 48.137 15.289 -1.226 
926 12 1 47.251 13.424  0.407 
927 12 1 45.256 13.548  2.036 
928 12 1 42.923 13.661  2.740 
929 12 1 40.632 14.534  3.156 
930 12 1 38.612 15.656  4.376 
931 12 1 36.594 16.924  5.055 
932 12 1 34.211 18.026  5.227 
933 12 1 31.999 16.899  4.508 
934 12 1 29.734 15.716  4.003 
935 12 1 27.534 14.486  3.506 
936 12 1 26.196 12.549  4.196 
937 12 1 25.859  9.944  4.319 
938 12 1 25.664  7.387  4.767 
939 12 1 24.958 42.228  5.943 
940 12 1 23.539 41.029  7.713 
941 12 1 22.262 39.760  9.597 
942 12 1 21.994 38.191 11.195 
943 12 1 21.502 36.615 12.878 
944 12 1 20.175 35.262 14.615 
945 12 1 19.072 33.984 16.545 
946 12 1 17.694 32.792 18.469 
947 12 1 16.306 31.597 20.211 
948 12 1 16.290 30.128 22.229 
949 12 1 16.889 28.367 23.915 
950 12 1 17.382 26.432 22.669 
951 12 1 18.052 25.046 20.548 
952 12 1 18.882 23.662 18.646 
953 12 1 19.952 22.301 16.703 
954 12 1 21.056 20.963 14.837 
955 12 1 22.584 21.613 12.752 
956 12 1 23.627 22.630 10.735 
957 12 1 23.142 23.969  9.091 
958 12 1 22.555 25.186  7.264 
959 12 1 22.623 25.778  4.803 
960 12 1 22.499 26.237  2.274 
961 12 1 22.150 26.540 -0.280 
962 12 1 21.136 26.784 -2.583 
963 12 1 19.829 26.807 -4.908 
964 12 1 18.708 27.666 -6.794 
965 12 1 18.684 29.343 55.578 
966 12 1 18.190 31.075 53.731 
967 12 1 17.458 32.588 51.676 
968 12 1 18.715 33.367 49.618 
969 12 1 20.692 33.883 48.517 
970 12 1 22.158 35.041 50.240 
971 12 1 23.310 34.580 52.448 
972 12 1 24.177 33.740 54.640 
973 12 1 25.209 32.492 56.700 
974 12 1 27.499 31.255 56.900 
975 12 1 29.803 30.145 -7.296 
976 12 1 32.304 29.728 -7.163 
977 12 1 33.769 31.932 -7.026 
978 12 1 35.314 34.004 -7.127 
979 12 1 36.933 35.972 -7.279 
980 12 1 37.685 37.366 -5.219 
981 12 1 38.283 38.950 -3.285 
982 12 1 38.176 40.960 -1.517 
983 12 1 38.800  6.777 -1.971 
984 12 1 39.557  8.708 -3.213 
985 12 1 38.508  8.666 -5.466 
986 12 1 37.525 10.748 -6.507 