LAMMPS data file generated by aa2cg.

2000 atoms
1 atom types
1975 bonds
1 bond types
1950 angles
1 angle types
1925 dihedrals
1 dihedral types

 0.000 58.889 xlo xhi
 0.000 45.536 ylo yhi
 0.000 45.389 zlo zhi

Masses

1 24.022

Atoms # molecular

1 1 1 42.812 34.262 28.772 
2 1 1 14.058 46.883 15.534 
3 2 1 30.139 16.714 24.926 
4 2 1 45.557  5.879 11.758 
5 3 1 -4.969 11.456 41.127 
6 3 1 49.161 46.918 28.234 
7 4 1 52.166 29.195 17.856 
8 4 1 39.128 12.345 11.139 
9 5 1 45.173 38.749 28.875 
10 5 1  5.340 28.679 17.630 
11 6 1 22.976  8.633 12.305 
12 6 1 52.546 24.882 32.613 
13 7 1 47.513  8.981  9.180 
14 7 1 20.336 33.836 28.664 
15 8 1  3.150 40.450 29.569 
16 8 1 20.940 28.539  3.142 
17 9 1 46.707 41.317 38.910 
18 9 1 44.883 37.184  6.301 
19 10 1 21.345  8.264  2.477 
20 10 1 39.052 32.534 30.475 
21 11 1 39.681 27.365 11.673 
22 11 1 -3.643 17.151 44.434 
23 12 1 -5.131 37.519  2.360 
24 12 1 19.535 31.939  7.035 
25 13 1 31.662 36.707 47.846 
26 13 1 37.082 40.910  2.845 
27 14 1 31.890 38.937 10.960 
28 14 1 53.849 38.603 42.705 
29 15 1 -3.208 18.514  8.757 
30 15 1 18.818  8.012  8.202 
31 16 1 52.792  6.946 45.739 
32 16 1 31.077 17.470 16.732 
33 17 1 44.148 40.404 23.524 
34 17 1 49.696 31.613 23.480 
35 18 1 41.642 39.177 19.460 
36 18 1 20.080 42.931 10.365 
37 19 1 -5.110 16.175 39.517 
38 19 1  0.960 38.494 35.938 
39 20 1 42.372 24.263 13.639 
40 20 1 19.886 21.985 29.578 
41 21 1 39.513 42.585 37.205 
42 21 1  9.773 39.769 45.887 
43 22 1 12.967 29.302 42.355 
44 22 1 47.022 42.543 15.517 
45 23 1 22.538  4.940 28.768 
46 23 1 42.550 25.673 31.712 
47 24 1 -2.753 28.465 36.438 
48 24 1 15.339 30.319 39.369 
49 25 1 48.337  9.159 46.880 
50 25 1 48.853 36.378 16.208 
51 1 1 44.170 34.368 30.937 
52 1 1 43.517 33.308 33.244 
53 1 1 42.262 32.272 34.937 
54 1 1 40.891 30.207 34.328 
55 1 1 39.766 27.988 34.275 
56 1 1 38.275 25.857 34.528 
57 1 1 36.598 23.855 34.467 
58 1 1 35.047 21.849 34.338 
59 1 1 33.453 19.830 34.301 
60 1 1 31.878 17.815 34.534 
61 1 1 30.139 15.890 34.747 
62 1 1 29.259 14.016 35.676 
63 1 1 29.308 12.083 37.493 
64 1 1 29.033 10.240 39.357 
65 1 1 29.033  8.142 40.705 
66 1 1 29.340  5.866 41.820 
67 1 1 30.086  5.440 44.274 
68 1 1 31.047  4.763 46.637 
69 1 1 33.470  4.639 47.598 
70 1 1 35.727  4.510  3.483 
71 1 1 38.024  4.541  4.672 
72 1 1 40.418  4.873  5.477 
73 1 1 41.926  5.838  6.874 
74 1 1 42.579  7.642  8.650 
75 1 1 41.155  8.190 10.864 
76 1 1 41.614  9.344 13.083 
77 1 1 41.917 10.908 15.103 
78 1 1 42.219 12.158 17.322 
79 1 1 43.277 13.463 19.022 
80 1 1 44.670 14.106 20.731 
81 1 1 45.469 13.883 23.124 
82 1 1 44.407 15.388 24.664 
83 1 1 42.121 16.187 25.739 
84 1 1 39.756 16.805 26.396 
85 1 1 37.639 16.450 27.255 
86 1 1 35.690 15.343 28.379 
87 1 1 35.645 12.783 28.774 
88 1 1 35.631 10.227 29.355 
89 1 1 35.533  7.736 30.088 
90 1 1 35.864  6.154 31.731 
91 1 1 36.132  5.113 34.113 
92 1 1 36.966  6.418 36.200 
93 1 1 38.410  7.679 37.428 
94 1 1 40.741  8.795 37.674 
95 1 1 43.005  9.903 38.021 
96 1 1 44.614 11.599 38.136 
97 1 1 45.180 14.073 37.638 
98 1 1 44.074 15.652 35.843 
99 1 1 42.770 17.518 35.525 
100 1 1 41.145 19.428 36.241 
101 1 1 39.417 21.187 36.844 
102 1 1 40.331 23.177 37.601 
103 1 1 41.778 25.390 37.546 
104 1 1 43.031 27.602 37.773 
105 1 1 44.882 28.304 36.103 
106 1 1 46.607 28.879 34.383 
107 1 1 48.402 28.677 33.056 
108 1 1 49.710 27.632 31.222 
109 1 1 50.871 26.684 29.199 
110 1 1 52.614 26.698 27.720 
111 1 1 -4.897 27.945 26.171 
112 1 1 -4.388 29.253 24.081 
113 1 1 -2.999 29.883 22.348 
114 1 1 -1.304 29.483 20.441 
115 1 1  0.738 27.992 20.382 
116 1 1  2.476 26.067 20.359 
117 1 1  4.432 24.429 20.357 
118 1 1  6.837 23.350 20.080 
119 1 1  8.207 24.941 18.953 
120 1 1  9.307 27.123 18.212 
121 1 1 10.238 29.464 17.376 
122 1 1 11.069 31.732 16.642 
123 1 1 12.191 33.821 16.007 
124 1 1 13.528 35.951 15.391 
125 1 1 14.436 38.211 14.602 
126 1 1 15.331 40.682 14.200 
127 1 1 16.262 43.043 13.672 
128 1 1 15.513 45.302 14.653 
129 2 1 29.868 19.109 25.720 
130 2 1 29.072 21.210 25.828 
131 2 1 27.480 22.844 26.123 
132 2 1 25.062 23.219 26.251 
133 2 1 22.566 23.276 25.624 
134 2 1 20.220 23.626 24.715 
135 2 1 18.660 21.967 23.900 
136 2 1 16.877 20.221 23.666 
137 2 1 15.068 18.384 23.729 
138 2 1 14.005 17.431 25.900 
139 2 1 13.248 16.828 28.233 
140 2 1 11.215 17.906 29.394 
141 2 1  9.515 19.368 30.528 
142 2 1  8.401 21.338 30.704 
143 2 1  8.101 23.747 30.227 
144 2 1  6.355 24.958 28.711 
145 2 1  5.855 27.499 28.695 
146 2 1  5.313 29.957 28.325 
147 2 1  4.015 31.832 28.656 
148 2 1  2.182 33.060 30.002 
149 2 1  0.116 34.235 29.591 
150 2 1 -0.207 36.552 28.927 
151 2 1  1.218 37.380 27.181 
152 2 1  2.216 37.726 24.842 
153 2 1  3.299 37.578 22.463 
154 2 1  4.654 37.108 20.326 
155 2 1  4.043 37.665 17.871 
156 2 1  2.669 37.737 16.016 
157 2 1  0.922 37.986 14.443 
158 2 1 -0.604 39.273 12.906 
159 2 1 -2.437 41.022 13.375 
160 2 1 -4.665 42.465 13.292 
161 2 1 52.617 42.654 11.391 
162 2 1 50.650 42.642  9.704 
163 2 1 48.802 42.561  7.937 
164 2 1 46.862 42.194  6.289 
165 2 1 44.787 42.236  4.752 
166 2 1 43.100 41.598  3.320 
167 2 1 41.852 39.781 47.399 
168 2 1 42.284 37.195 47.345 
169 2 1 40.834 35.507  3.303 
170 2 1 38.883 34.300  4.429 
171 2 1 36.641 33.632  3.282 
172 2 1 34.347 32.933  2.227 
173 2 1 31.991 32.463 46.648 
174 2 1 30.733 31.904 44.859 
175 2 1 29.927 31.272 42.429 
176 2 1 28.953 30.860 40.094 
177 2 1 28.338 31.329 37.925 
178 2 1 27.664 32.946 36.044 
179 2 1 27.198 34.370 34.012 
180 2 1 26.346 35.325 31.949 
181 2 1 25.273 35.688 29.648 
182 2 1 24.239 35.839 27.304 
183 2 1 24.145 33.833 25.580 
184 2 1 24.752 31.690 24.358 
185 2 1 25.898 29.471 23.914 
186 2 1 27.595 27.612 24.720 
187 2 1 28.937 26.048 23.218 
188 2 1 30.362 24.606 21.706 
189 2 1 31.914 23.154 20.203 
190 2 1 33.490 21.833 18.767 
191 2 1 35.115 20.342 17.451 
192 2 1 37.741 20.568 17.245 
193 2 1 40.212 19.945 17.140 
194 2 1 42.580 19.094 17.280 
195 2 1 44.509 18.780 18.556 
196 2 1 46.066 18.463 20.536 
197 2 1 47.940 17.681 21.762 
198 2 1 49.841 16.137 22.359 
199 2 1 51.866 14.604 22.780 
200 2 1 52.282 12.174 21.825 
201 2 1 52.901  9.801 20.887 
202 2 1 52.503  7.651 20.150 
203 2 1 50.757  5.873 19.350 
204 2 1 48.861  4.524 18.068 
205 2 1 48.024  5.057 15.615 
206 2 1 47.645  5.517 13.083 
207 3 1 -4.628 11.690 38.535 
208 3 1 -4.562 12.152 35.965 
209 3 1 52.410 13.075 34.448 
210 3 1 50.497 14.297 33.157 
211 3 1 48.234 14.990 32.883 
212 3 1 46.773 12.856 33.042 
213 3 1 44.916 11.066 33.061 
214 3 1 42.788  9.725 32.742 
215 3 1 41.246  8.640 31.489 
216 3 1 40.763  7.310 29.262 
217 3 1 39.420  6.593 27.542 
218 3 1 39.868  7.229 25.283 
219 3 1 40.783  7.118 22.954 
220 3 1 41.654  7.298 20.547 
221 3 1 42.612  7.683 18.164 
222 3 1 42.108  6.251 15.965 
223 3 1 41.569  5.099 13.710 
224 3 1 41.215  3.793 11.596 
225 3 1 40.096  2.605 10.040 
226 3 1 38.577  1.517  8.649 
227 3 1 39.683 45.250  6.957 
228 3 1 37.777 44.540  5.778 
229 3 1 35.135 44.570  5.178 
230 3 1 32.714 44.350  4.554 
231 3 1 30.259 43.986  3.823 
232 3 1 27.887 43.858  2.962 
233 3 1 25.415 44.142 47.458 
234 3 1 23.254 44.049 46.362 
235 3 1 21.173 42.953 45.215 
236 3 1 19.252 41.587 44.180 
237 3 1 17.849 39.850 42.844 
238 3 1 16.748 38.803 41.112 
239 3 1 15.652 38.802 38.736 
240 3 1 16.713 39.793 36.609 
241 3 1 17.942 40.771 34.585 
242 3 1 19.366 41.621 32.645 
243 3 1 20.855 42.838 31.018 
244 3 1 22.128 43.927 29.031 
245 3 1 23.213 44.673 26.814 
246 3 1 24.214 45.239 24.478 
247 3 1 25.661 44.920 22.757 
248 3 1 27.516 43.684 21.547 
249 3 1 28.992 42.359 23.007 
250 3 1 30.079 41.689 25.322 
251 3 1 31.053 40.993 27.648 
252 3 1 31.759 40.410 30.073 
253 3 1 32.469 40.113 32.499 
254 3 1 33.779 39.857 34.672 
255 3 1 34.931 39.390 36.906 
256 3 1 35.516 38.382 39.243 
257 3 1 36.791 36.178 39.656 
258 3 1 38.562 34.630 39.852 
259 3 1 41.036 33.912 39.702 
260 3 1 43.664 33.557 39.286 
261 3 1 45.805 32.398 39.331 
262 3 1 47.576 30.725 40.291 
263 3 1 49.258 29.641 41.880 
264 3 1 51.062 29.566 43.299 
265 3 1 52.810 30.640 44.837 
266 3 1 -4.289 31.635 46.355 
267 3 1 -2.340 32.674  2.315 
268 3 1 -0.109 33.420  3.379 
269 3 1  2.310 34.221  3.606 
270 3 1  4.745 35.291  3.419 
271 3 1  4.862 37.649  2.773 
272 3 1  4.601 39.743 46.519 
273 3 1  5.439 40.409 44.144 
274 3 1  4.228 42.219 42.762 
275 3 1  3.117 44.135 42.231 
276 3 1  2.267 46.337 41.950 
277 3 1  0.932  2.555 41.197 
278 3 1 -1.176  1.553 40.126 
279 3 1 -3.182 45.872 39.176 
280 3 1 -4.421 44.778 37.537 
281 3 1 53.826 46.548 35.742 
282 3 1 53.091  2.848 34.073 
283 3 1 51.709  2.706 31.891 
284 3 1 50.631  2.336 29.596 
285 4 1 49.937 30.129 17.126 
286 4 1 47.577 30.776 16.316 
287 4 1 45.331 31.183 15.136 
288 4 1 43.081 31.278 13.934 
289 4 1 41.652 31.518 12.130 
290 4 1 40.330 31.465 10.241 
291 4 1 38.180 30.809  9.046 
292 4 1 35.837 30.047  8.225 
293 4 1 33.308 29.804  7.773 
294 4 1 30.803 29.424  7.681 
295 4 1 29.021 27.942  6.920 
296 4 1 29.238 26.043  8.254 
297 4 1 27.140 25.521  9.605 
298 4 1 27.305 24.514 11.957 
299 4 1 25.661 23.037 12.407 
300 4 1 24.413 20.984 11.441 
301 4 1 23.173 19.314 10.009 
302 4 1 21.218 18.625  9.017 
303 4 1 19.042 18.195  7.920 
304 4 1 17.348 17.292  6.226 
305 4 1 15.488 16.813  4.452 
306 4 1 13.857 15.777  2.702 
307 4 1 12.004 15.125 46.468 
308 4 1 11.980 15.115 43.849 
309 4 1 10.344 13.933 42.190 
310 4 1  8.402 15.114 41.017 
311 4 1  6.552 16.473 39.879 
312 4 1  4.242 15.829 38.787 
313 4 1  1.797 16.010 37.961 
314 4 1 -0.593 16.445 37.392 
315 4 1 -1.728 15.945 35.233 
316 4 1 -2.764 15.114 33.082 
317 4 1 -3.763 13.915 31.131 
318 4 1 -4.181 12.149 29.738 
319 4 1 -4.606 10.785 27.842 
320 4 1 -3.940 10.405 25.665 
321 4 1 -4.088  7.899 25.186 
322 4 1 -4.453  5.462 24.423 
323 4 1 54.135  3.164 23.418 
324 4 1 54.107 46.470 22.093 
325 4 1 54.216 44.237 20.832 
326 4 1 -3.365 44.153 18.953 
327 4 1 -2.720 45.030 16.549 
328 4 1 -1.908 45.569 14.109 
329 4 1 -1.220 45.710 11.644 
330 4 1 -0.095 44.838  9.890 
331 4 1 -1.048 43.067  8.728 
332 4 1 -2.194 41.867  6.682 
333 4 1 -4.089 42.951  5.417 
334 4 1 53.002 42.164  3.699 
335 4 1 50.914 41.291  3.268 
336 4 1 48.820 40.320  2.919 
337 4 1 47.668 38.577  2.095 
338 4 1 47.616 36.024 47.057 
339 4 1 47.743 33.577 46.561 
340 4 1 47.218 31.170 46.081 
341 4 1 46.776 29.602  2.591 
342 4 1 46.529 27.645  4.269 
343 4 1 46.536 26.542  6.346 
344 4 1 48.893 26.998  7.351 
345 4 1 51.311 27.348  8.161 
346 4 1 53.193 28.218  7.031 
347 4 1 -3.976 28.522  5.182 
348 4 1 -4.011 27.166  2.942 
349 4 1 -4.396 25.478 46.445 
350 4 1 53.802 23.780 44.644 
351 4 1 52.279 22.135 43.884 
352 4 1 51.716 20.124 45.452 
353 4 1 50.984 18.013 46.841 
354 4 1 48.736 16.698 46.462 
355 4 1 46.654 15.264 46.060 
356 4 1 44.793 13.624 45.399 
357 4 1 42.584 13.291 44.395 
358 4 1 40.413 13.696 45.787 
359 4 1 38.664 14.145 47.506 
360 4 1 37.782 14.316  4.265 
361 4 1 37.669 13.600  6.654 
362 4 1 38.166 12.677  8.999 
363 5 1 44.797 38.943 31.420 
364 5 1 44.418 38.692 33.944 
365 5 1 44.012 38.275 36.446 
366 5 1 43.169 38.907 38.522 
367 5 1 41.951 40.143 40.374 
368 5 1 41.145 42.549 40.881 
369 5 1 41.296 44.711 41.499 
370 5 1 42.417 46.731 42.483 
371 5 1 44.295  2.751 43.183 
372 5 1 46.329  4.127 44.002 
373 5 1 48.736  3.501 44.703 
374 5 1 50.984  2.782 45.890 
375 5 1 53.141  2.192 47.290 
376 5 1 -3.706 46.918  3.340 
377 5 1 -1.430 45.895  4.161 
378 5 1 -0.049 46.760  6.045 
379 5 1  1.808  2.366  7.457 
380 5 1  2.910  3.976  8.781 
381 5 1  3.422  5.304 10.543 
382 5 1  3.541  6.631 12.403 
383 5 1  3.385  8.966 13.510 
384 5 1  3.316 11.280 14.595 
385 5 1  2.981 13.595 15.661 
386 5 1  2.314 15.833 16.603 
387 5 1  1.182 18.027 17.259 
388 5 1  0.521 20.211 17.467 
389 5 1  0.271 22.505 17.701 
390 5 1 -2.015 23.541 17.186 
391 5 1 -4.490 24.336 17.001 
392 5 1 52.201 24.541 16.078 
393 5 1 50.927 25.467 14.332 
394 5 1 49.744 27.299 12.852 
395 5 1 47.925 28.074 11.588 
396 5 1 45.573 27.982 10.530 
397 5 1 43.413 27.819  9.155 
398 5 1 41.501 27.642  7.405 
399 5 1 39.628 27.143  5.670 
400 5 1 38.096 25.485  6.316 
401 5 1 37.043 23.630  7.161 
402 5 1 37.725 22.830  9.541 
403 5 1 37.612 22.844 11.899 
404 5 1 36.756 23.739 14.127 
405 5 1 36.769 24.479 16.360 
406 5 1 37.686 24.568 18.746 
407 5 1 40.111 23.850 19.341 
408 5 1 42.586 23.255 19.661 
409 5 1 45.039 22.671 19.859 
410 5 1 47.611 22.516 20.072 
411 5 1 50.066 21.852 19.987 
412 5 1 51.929 21.055 19.043 
413 5 1 53.390 20.037 17.222 
414 5 1 -4.110 19.255 15.263 
415 5 1 -2.444 18.336 13.675 
416 5 1 -0.620 17.177 12.376 
417 5 1  1.324 16.144 11.093 
418 5 1  1.195 14.809  9.192 
419 5 1  2.688 14.764  7.195 
420 5 1  4.308 13.991  5.251 
421 5 1  5.929 13.460  3.413 
422 5 1  7.786 13.227  1.638 
423 5 1  7.783 11.136 45.493 
424 5 1  7.841  9.371 43.760 
425 5 1  8.066  7.962 41.686 
426 5 1  8.626  6.632 39.479 
427 5 1  8.947  5.722 37.113 
428 5 1  8.767  5.062 34.672 
429 5 1  8.514  4.401 32.169 
430 5 1  8.490  3.687 29.640 
431 5 1  8.675  2.626 27.350 
432 5 1  8.938 46.717 25.316 
433 5 1  9.331 44.928 23.506 
434 5 1 10.126 43.147 21.828 
435 5 1 10.660 41.245 20.100 
436 5 1 10.470 39.367 18.384 
437 5 1  9.619 37.360 17.307 
438 5 1  8.291 35.277 17.028 
439 5 1  6.640 33.346 16.765 
440 5 1  5.619 31.173 16.826 
441 6 1 24.060  7.260 10.398 
442 6 1 25.390  6.085  8.564 
443 6 1 24.374  4.965  6.500 
444 6 1 23.166  3.891  4.428 
445 6 1 21.628  2.922  2.595 
446 6 1 19.753  1.995 46.465 
447 6 1 17.760  1.319 45.103 
448 6 1 16.030 46.987 43.552 
449 6 1 14.041  2.083 42.663 
450 6 1 12.795  3.005 44.669 
451 6 1 11.419  3.722 46.819 
452 6 1 10.424  5.405  2.805 
453 6 1  8.759  6.793  4.004 
454 6 1  7.048  7.548  5.725 
455 6 1  5.361  8.458  7.202 
456 6 1  4.090  9.942  8.325 
457 6 1  1.693 10.547  7.454 
458 6 1 -0.686 11.018  6.749 
459 6 1 -2.831 10.456  5.972 
460 6 1 -2.682  9.407  3.561 
461 6 1 -1.210  7.463  3.450 
462 6 1  0.994  6.002  3.497 
463 6 1  3.106  4.519  3.599 
464 6 1  5.284  3.126  4.012 
465 6 1  7.305  1.587  4.097 
466 6 1  9.175 45.400  4.016 
467 6 1 11.186 43.752  4.048 
468 6 1 12.652 41.895  4.240 
469 6 1 13.276 39.375  4.517 
470 6 1 13.737 36.906  5.002 
471 6 1 14.064 34.413  5.525 
472 6 1 13.682 32.000  6.404 
473 6 1 11.580 30.621  6.930 
474 6 1  9.477 29.430  7.675 
475 6 1  7.510 28.381  8.791 
476 6 1  5.489 28.133  9.885 
477 6 1  4.757 30.244 11.147 
478 6 1  6.564 31.801 11.857 
479 6 1  6.521 34.284 11.161 
480 6 1  8.281 35.993 11.619 
481 6 1  9.440 37.911 12.925 
482 6 1 10.169 40.211 13.845 
483 6 1 10.877 42.303 15.086 
484 6 1 11.215 44.201 16.848 
485 6 1 11.322 45.933 18.679 
486 6 1 11.491 47.708 20.500 
487 6 1 11.810  4.006 22.315 
488 6 1 12.065  5.423 24.465 
489 6 1 12.038  6.776 26.634 
490 6 1 12.374  7.349 28.968 
491 6 1 13.591  5.267 29.955 
492 6 1 12.776  3.987 32.058 
493 6 1 14.138  3.354 34.235 
494 6 1 12.736  2.727 35.988 
495 6 1 11.061  2.026 37.297 
496 6 1  9.703 45.525 38.089 
497 6 1  8.392 43.369 38.679 
498 6 1  7.356 41.138 39.311 
499 6 1  5.585 40.142 37.932 
500 6 1  3.807 41.871 37.382 
501 6 1  2.356 43.432 36.196 
502 6 1  3.226 43.853 33.763 
503 6 1  3.880 44.619 31.379 
504 6 1  5.080 44.944 29.425 
505 6 1  7.125 44.235 28.042 
506 6 1  7.632 42.245 26.549 
507 6 1  8.260 40.304 24.962 
508 6 1  8.648 38.138 23.631 
509 6 1  8.784 35.863 22.382 
510 6 1  8.738 33.466 21.459 
511 6 1  7.833 31.424 21.745 
512 6 1  6.131 29.874 22.753 
513 6 1  4.353 28.503 23.937 
514 6 1  2.434 27.301 25.086 
515 6 1  0.473 26.286 26.456 
516 6 1 -1.345 25.126 27.794 
517 6 1 -3.282 24.193 29.174 
518 6 1 53.475 23.634 30.542 
519 7 1 47.568 10.063 11.551 
520 7 1 47.869 10.258 13.920 
521 7 1 47.659 10.369 16.202 
522 7 1 47.457 10.410 18.508 
523 7 1 46.484  9.412 20.370 
524 7 1 45.391  8.610 22.195 
525 7 1 44.903  8.620 24.485 
526 7 1 43.856  9.654 26.616 
527 7 1 41.931 11.290 26.591 
528 7 1 40.220 12.568 25.696 
529 7 1 38.874 13.346 23.708 
530 7 1 38.902 12.134 21.429 
531 7 1 38.191 10.284 20.071 
532 7 1 35.569  9.961 20.386 
533 7 1 34.037  8.057 19.383 
534 7 1 33.087  5.896 18.350 
535 7 1 30.871  5.448 18.960 
536 7 1 30.524  6.121 21.462 
537 7 1 30.081  7.346 23.734 
538 7 1 29.534  9.821 24.506 
539 7 1 30.119 12.043 25.163 
540 7 1 32.554 11.885 25.113 
541 7 1 35.008 10.905 25.003 
542 7 1 35.584  8.566 24.180 
543 7 1 36.107  6.251 23.152 
544 7 1 36.168  3.861 22.231 
545 7 1 35.625  2.126 20.832 
546 7 1 34.202 46.416 19.129 
547 7 1 31.658 46.527 19.089 
548 7 1 29.266 47.112 19.381 
549 7 1 26.877  2.556 19.486 
550 7 1 25.378  4.186 19.994 
551 7 1 26.220  6.369 18.971 
552 7 1 27.572  8.500 18.262 
553 7 1 28.397 10.209 20.048 
554 7 1 28.076 12.748 20.155 
555 7 1 27.971 15.238 20.183 
556 7 1 27.735 17.869 20.541 
557 7 1 27.165 20.448 20.777 
558 7 1 26.036 22.672 21.041 
559 7 1 24.737 24.724 21.716 
560 7 1 23.039 26.387 21.726 
561 7 1 20.941 27.460 20.766 
562 7 1 18.604 27.885 20.697 
563 7 1 16.983 25.841 20.836 
564 7 1 16.460 23.740 20.323 
565 7 1 16.670 21.668 18.874 
566 7 1 18.041 19.918 18.184 
567 7 1 20.275 18.612 18.537 
568 7 1 21.822 18.696 20.561 
569 7 1 23.213 18.779 22.760 
570 7 1 24.398 18.673 25.032 
571 7 1 25.249 18.194 27.388 
572 7 1 26.125 17.551 29.790 
573 7 1 26.139 17.615 32.110 
574 7 1 25.556 18.382 34.467 
575 7 1 26.185 18.607 36.781 
576 7 1 25.473 16.535 38.221 
577 7 1 25.067 14.260 39.400 
578 7 1 26.262 12.928 41.225 
579 7 1 27.437 11.529 43.084 
580 7 1 28.738 11.557 45.076 
581 7 1 30.923 10.847 44.579 
582 7 1 33.008 10.084 44.364 
583 7 1 34.982  9.999 43.342 
584 7 1 35.093 11.055 41.149 
585 7 1 35.068 12.797 39.569 
586 7 1 32.934 14.131 40.089 
587 7 1 30.854 15.558 40.605 
588 7 1 30.404 17.844 39.428 
589 7 1 29.674 19.991 38.142 
590 7 1 29.488 22.174 36.738 
591 7 1 29.704 24.350 35.256 
592 7 1 28.057 26.178 34.803 
593 7 1 26.334 27.849 34.005 
594 7 1 24.586 29.675 33.537 
595 7 1 23.069 31.413 32.440 
596 7 1 21.842 32.549 30.419 
597 8 1  4.545 39.678 31.400 
598 8 1  6.041 39.407 33.355 
599 8 1  7.655 41.075 34.009 
600 8 1  8.613 42.985 33.062 
601 8 1  9.751 44.808 32.132 
602 8 1 11.445 45.785 31.018 
603 8 1 12.680 46.216 28.744 
604 8 1 13.898 46.195 26.544 
605 8 1 15.051 46.876 24.374 
606 8 1 15.920  2.439 22.223 
607 8 1 16.074  4.785 21.365 
608 8 1 16.136  7.220 21.154 
609 8 1 16.665  9.029 22.435 
610 8 1 17.323  7.790 24.672 
611 8 1 17.751  6.192 26.572 
612 8 1 17.764  4.777 28.652 
613 8 1 17.603  3.372 30.829 
614 8 1 18.959  3.637 33.074 
615 8 1 19.700  1.633 34.491 
616 8 1 19.632  1.773 36.762 
617 8 1 18.362  2.066 38.989 
618 8 1 16.554  3.426 38.750 
619 8 1 16.611  5.596 37.420 
620 8 1 16.318  7.657 35.961 
621 8 1 16.366  8.780 33.907 
622 8 1 16.692  9.028 31.377 
623 8 1 16.514  9.891 29.196 
624 8 1 15.665 11.217 27.142 
625 8 1 14.203 12.130 25.178 
626 8 1 14.993 13.697 23.767 
627 8 1 16.517 14.400 21.812 
628 8 1 18.264 14.697 19.945 
629 8 1 19.778 14.547 17.860 
630 8 1 21.255 14.460 15.726 
631 8 1 22.704 14.712 13.694 
632 8 1 24.202 14.396 11.688 
633 8 1 25.930 13.187 10.439 
634 8 1 27.802 11.517  9.830 
635 8 1 29.690  9.961  9.144 
636 8 1 31.532  8.304  8.252 
637 8 1 31.190  5.990  7.184 
638 8 1 30.133  3.890  6.259 
639 8 1 28.468  2.957  4.910 
640 8 1 27.129  2.739  2.851 
641 8 1 25.360  2.697 46.462 
642 8 1 25.339  4.217 44.389 
643 8 1 24.668  6.694 44.299 
644 8 1 24.541  8.216 42.280 
645 8 1 23.762  9.422 39.922 
646 8 1 23.659 10.785 37.653 
647 8 1 23.694 11.905 35.366 
648 8 1 23.057 14.347 34.776 
649 8 1 22.223 16.753 34.097 
650 8 1 22.043 17.433 31.553 
651 8 1 21.163 17.758 29.158 
652 8 1 20.159 17.329 26.855 
653 8 1 19.739 15.664 25.192 
654 8 1 20.058 13.326 24.059 
655 8 1 20.947 11.175 23.006 
656 8 1 22.389  9.284 22.170 
657 8 1 22.911  7.378 21.038 
658 8 1 21.562  5.164 21.336 
659 8 1 20.728  3.298 22.294 
660 8 1 19.747  2.177 24.528 
661 8 1 18.615 46.717 26.746 
662 8 1 17.551 45.590 28.737 
663 8 1 16.540 44.601 30.840 
664 8 1 15.169 43.674 32.847 
665 8 1 13.781 42.379 34.520 
666 8 1 12.577 41.125 36.403 
667 8 1 11.543 39.878 38.399 
668 8 1 11.496 38.159 40.001 
669 8 1 12.240 36.038 41.256 
670 8 1 13.133 34.451 42.958 
671 8 1 14.177 33.063 44.818 
672 8 1 14.769 31.957 47.052 
673 8 1 16.847 31.191  2.622 
674 8 1 18.937 30.286  3.133 
675 9 1 48.228 41.254 41.043 
676 9 1 49.961 41.899 42.500 
677 9 1 52.114 43.100 43.219 
678 9 1 54.471 43.923 43.703 
679 9 1 -2.124 43.364 43.993 
680 9 1 -1.345 41.798 42.173 
681 9 1 -0.486 41.246 40.156 
682 9 1 -1.555 41.490 37.853 
683 9 1 -2.520 41.841 35.473 
684 9 1 -3.815 42.708 33.454 
685 9 1 53.535 43.413 31.670 
686 9 1 51.948 43.184 30.016 
687 9 1 50.618 41.666 28.265 
688 9 1 49.426 40.099 26.490 
689 9 1 48.466 38.324 24.879 
690 9 1 47.274 36.314 24.390 
691 9 1 45.780 34.340 24.874 
692 9 1 44.135 32.445 25.322 
693 9 1 42.496 30.656 26.231 
694 9 1 40.806 28.911 27.048 
695 9 1 39.310 26.952 28.026 
696 9 1 37.993 25.019 29.037 
697 9 1 36.595 22.842 29.548 
698 9 1 35.098 20.616 29.608 
699 9 1 33.626 18.524 29.034 
700 9 1 31.752 17.276 30.450 
701 9 1 31.301 14.734 30.465 
702 9 1 30.779 12.204 30.559 
703 9 1 30.275  9.764 30.041 
704 9 1 28.089  8.437 29.834 
705 9 1 25.820  8.082 30.323 
706 9 1 23.493  8.424 31.464 
707 9 1 21.137  8.342 32.359 
708 9 1 20.893  8.016 34.668 
709 9 1 20.957  7.033 37.123 
710 9 1 20.995  6.365 39.558 
711 9 1 22.607  4.737 39.958 
712 9 1 24.877  3.697 39.864 
713 9 1 27.174  2.603 39.488 
714 9 1 29.489 47.108 39.125 
715 9 1 31.614  2.544 40.284 
716 9 1 33.736  3.288 41.465 
717 9 1 35.807  3.872 42.873 
718 9 1 37.862  4.494 44.255 
719 9 1 40.023  5.046 45.598 
720 9 1 42.215  5.329 46.871 
721 9 1 44.657  5.278  2.478 
722 9 1 47.067  5.456  3.214 
723 9 1 49.622  5.467  3.929 
724 9 1 52.091  5.381  4.866 
725 9 1 54.495  5.533  5.905 
726 9 1 -2.298  6.006  7.387 
727 9 1 -1.886  6.119  9.627 
728 9 1 -0.977  5.275 11.525 
729 9 1 -0.902  6.668 13.787 
730 9 1 -0.514  8.154 15.867 
731 9 1 -0.891  9.098 18.007 
732 9 1 -0.205  8.028 20.057 
733 9 1  0.438  7.006 22.151 
734 9 1  0.257  5.271 23.945 
735 9 1  0.065  3.146 25.356 
736 9 1  0.968 46.560 25.754 
737 9 1  2.391 44.420 25.224 
738 9 1  3.539 42.324 24.332 
739 9 1  5.069 42.266 22.220 
740 9 1  6.411 42.163 20.025 
741 9 1  7.195 42.825 17.831 
742 9 1  5.914 42.764 15.663 
743 9 1  4.629 42.267 13.688 
744 9 1  3.849 40.942 11.675 
745 9 1  3.374 39.325  9.732 
746 9 1  2.076 38.122  8.177 
747 9 1  0.078 36.904  7.024 
748 9 1 -2.410 37.577  6.933 
749 9 1 -4.879 38.062  7.150 
750 9 1 51.495 38.449  7.199 
751 9 1 49.852 36.443  7.073 
752 9 1 47.259 36.660  6.792 
753 10 1 20.308  6.851 45.966 
754 10 1 18.788  6.704 44.085 
755 10 1 16.594  6.997 42.761 
756 10 1 14.949  8.938 43.136 
757 10 1 13.521 10.129 41.295 
758 10 1 12.995 10.462 39.137 
759 10 1 12.233  9.861 36.783 
760 10 1 11.575  9.024 34.384 
761 10 1 10.763  9.258 32.278 
762 10 1  9.997 10.820 30.434 
763 10 1  9.451 12.732 28.785 
764 10 1  9.194 13.794 26.720 
765 10 1  9.728 14.532 24.489 
766 10 1 10.428 16.163 22.651 
767 10 1 10.875 17.823 20.679 
768 10 1 11.362 20.254 20.193 
769 10 1 11.917 22.474 19.045 
770 10 1 12.710 24.751 18.730 
771 10 1 13.523 26.879 18.137 
772 10 1 14.189 28.509 16.352 
773 10 1 15.317 30.032 14.661 
774 10 1 16.438 31.980 14.265 
775 10 1 17.572 34.192 14.947 
776 10 1 19.045 36.197 15.424 
777 10 1 18.631 37.437 17.589 
778 10 1 17.629 38.436 19.785 
779 10 1 15.537 38.591 21.181 
780 10 1 14.155 37.840 22.840 
781 10 1 13.742 36.057 24.564 
782 10 1 13.058 33.859 25.819 
783 10 1 13.318 31.300 26.344 
784 10 1 14.374 30.295 28.513 
785 10 1 15.131 29.118 30.758 
786 10 1 13.871 28.663 33.099 
787 10 1 12.660 28.305 35.394 
788 10 1 11.394 28.149 37.630 
789 10 1  9.726 27.746 39.530 
790 10 1  7.883 27.450 41.330 
791 10 1  6.006 27.148 43.140 
792 10 1  4.361 27.828 44.908 
793 10 1  5.166 30.024 45.735 
794 10 1  5.738 32.212 45.492 
795 10 1  7.142 33.803 44.551 
796 10 1  8.371 35.071 43.138 
797 10 1  7.374 36.618 41.555 
798 10 1  5.190 36.438 40.208 
799 10 1  4.261 36.130 38.172 
800 10 1  4.548 35.441 35.732 
801 10 1  4.727 34.923 33.138 
802 10 1  6.769 35.548 31.691 
803 10 1  8.563 36.323 29.973 
804 10 1  8.717 35.553 27.726 
805 10 1  8.617 33.274 26.416 
806 10 1  9.370 30.868 27.283 
807 10 1 10.097 28.763 28.525 
808 10 1 10.999 26.904 29.934 
809 10 1 11.939 24.735 31.075 
810 10 1 12.713 22.567 32.158 
811 10 1 13.472 20.172 32.922 
812 10 1 15.434 18.794 32.004 
813 10 1 17.460 17.303 31.222 
814 10 1 17.789 14.796 31.598 
815 10 1 20.023 13.542 31.199 
816 10 1 20.523 11.960 29.313 
817 10 1 21.114 10.248 27.414 
818 10 1 23.376  9.612 26.369 
819 10 1 25.565  8.461 25.372 
820 10 1 26.484  6.199 26.061 
821 10 1 26.496  3.880 24.812 
822 10 1 28.733  2.925 23.972 
823 10 1 31.124  1.848 23.827 
824 10 1 33.487 46.440 23.932 
825 10 1 34.657 44.303 24.890 
826 10 1 35.779 42.816 26.388 
827 10 1 36.491 41.814 28.759 
828 10 1 37.156 40.018 29.880 
829 10 1 38.011 37.632 30.133 
830 10 1 38.602 35.066 30.314 
831 11 1 39.218 27.464 14.234 
832 11 1 40.709 28.358 15.952 
833 11 1 42.575 28.024 17.386 
834 11 1 44.994 27.181 17.914 
835 11 1 47.410 26.709 18.729 
836 11 1 49.618 26.345 19.940 
837 11 1 51.554 25.877 21.623 
838 11 1 53.614 24.913 22.215 
839 11 1 -2.990 23.788 21.968 
840 11 1 -0.754 22.495 22.046 
841 11 1  1.656 21.430 21.835 
842 11 1  4.172 20.623 21.627 
843 11 1  5.005 18.225 20.904 
844 11 1  5.892 15.821 20.759 
845 11 1  7.030 13.566 20.196 
846 11 1  7.418 11.924 18.690 
847 11 1  7.354 10.927 16.335 
848 11 1  7.519  9.714 14.039 
849 11 1  7.945  8.755 11.584 
850 11 1  8.040  7.275  9.900 
851 11 1  7.827  4.942  8.686 
852 11 1  7.198  2.538  9.761 
853 11 1  6.499 46.034  8.298 
854 11 1  5.609 43.962  6.975 
855 11 1  4.873 42.103  5.351 
856 11 1  2.583 42.262  4.331 
857 11 1  0.543 40.690  3.902 
858 11 1  0.256 39.053  1.815 
859 11 1 -0.283 37.121 45.637 
860 11 1 -0.064 35.257 44.248 
861 11 1  1.109 33.332 42.940 
862 11 1  1.797 31.418 41.311 
863 11 1  4.193 31.327 40.777 
864 11 1  6.411 32.167 39.778 
865 11 1  8.497 33.134 38.533 
866 11 1 10.585 34.376 37.780 
867 11 1 10.884 35.950 35.763 
868 11 1 11.322 37.584 33.798 
869 11 1 11.562 39.310 31.920 
870 11 1 11.423 40.957 29.973 
871 11 1 12.399 41.180 27.665 
872 11 1 13.216 41.925 25.297 
873 11 1 13.947 42.824 23.073 
874 11 1 14.786 43.766 20.904 
875 11 1 16.353 43.941 19.128 
876 11 1 18.232 42.917 17.761 
877 11 1 20.023 41.566 16.408 
878 11 1 21.590 39.916 15.218 
879 11 1 23.008 38.048 14.179 
880 11 1 23.072 35.794 13.372 
881 11 1 22.280 33.473 12.764 
882 11 1 21.314 31.115 12.471 
883 11 1 20.585 28.619 12.007 
884 11 1 20.090 26.358 11.009 
885 11 1 20.152 24.462 12.266 
886 11 1 20.513 22.376 13.346 
887 11 1 20.730 19.884 13.848 
888 11 1 19.101 18.043 13.181 
889 11 1 17.484 16.647 14.096 
890 11 1 15.614 16.528 15.833 
891 11 1 14.024 15.760 17.714 
892 11 1 12.611 14.577 19.520 
893 11 1 12.511 12.236 19.655 
894 11 1 12.034 10.028 20.214 
895 11 1 10.517  9.831 22.310 
896 11 1  9.130  9.386 24.382 
897 11 1  7.819  8.747 26.491 
898 11 1  6.541  7.920 28.556 
899 11 1  5.521  7.682 30.866 
900 11 1  4.834  7.663 33.284 
901 11 1  4.252  7.293 35.795 
902 11 1  3.653  6.879 38.258 
903 11 1  3.238  6.631 40.819 
904 11 1  2.190  7.249 42.783 
905 11 1  0.121  8.633 43.746 
906 11 1 -2.035  9.661 44.745 
907 11 1 -2.574 12.177 44.482 
908 11 1 -3.092 14.687 44.546 
909 12 1 52.833 35.371  3.223 
910 12 1 51.745 33.232  4.290 
911 12 1 51.247 30.974  4.239 
912 12 1 50.843 28.767  3.055 
913 12 1 50.202 26.711  1.682 
914 12 1 48.648 25.107 46.087 
915 12 1 47.289 23.413 45.298 
916 12 1 45.963 21.509 45.061 
917 12 1 44.135 19.856 45.489 
918 12 1 42.298 18.122 45.955 
919 12 1 41.093 17.851  2.773 
920 12 1 40.778 17.276  4.991 
921 12 1 41.622 17.115  7.239 
922 12 1 42.651 18.574  9.222 
923 12 1 44.803 18.258 10.421 
924 12 1 47.032 17.544 10.799 
925 12 1 48.878 15.984 10.105 
926 12 1 50.610 16.348  8.186 
927 12 1 51.851 17.509  6.658 
928 12 1 53.346 18.555  5.233 
929 12 1 -3.509 18.977  3.823 
930 12 1 -1.236 19.258  2.742 
931 12 1  1.272 19.767  2.333 
932 12 1  3.266 18.350  3.381 
933 12 1  5.568 17.986  4.466 
934 12 1  7.807 17.234  5.572 
935 12 1 10.201 16.785  6.500 
936 12 1 12.305 16.112  7.850 
937 12 1 13.360 13.856  8.789 
938 12 1 15.683 13.581  9.717 
939 12 1 17.659 13.198 11.296 
940 12 1 18.367 10.942 12.360 
941 12 1 18.523  8.640 12.557 
942 12 1 17.885  6.241 11.695 
943 12 1 17.286  3.800 11.046 
944 12 1 16.635  1.484 10.114 
945 12 1 16.014 44.703  9.172 
946 12 1 15.710 42.288  8.512 
947 12 1 15.255 39.956  8.884 
948 12 1 14.606 37.729  9.811 
949 12 1 13.386 35.649 10.696 
950 12 1 12.230 33.377 11.349 
951 12 1 11.411 31.002 11.748 
952 12 1 11.282 28.389 12.297 
953 12 1  9.939 26.720 13.697 
954 12 1  8.032 25.593 14.164 
955 12 1  7.335 23.906 12.329 
956 12 1  6.239 23.995 10.017 
957 12 1  5.220 23.621  7.631 
958 12 1  4.575 23.349  5.210 
959 12 1  3.770 23.066  2.724 
960 12 1  3.294 22.930 45.649 
961 12 1  2.349 23.052 43.215 
962 12 1  3.101 21.213 41.976 
963 12 1  4.475 19.300 42.059 
964 12 1  6.328 18.778 43.743 
965 12 1  8.551 18.906 44.446 
966 12 1  8.807 21.320 45.202 
967 12 1  9.179 23.820 45.619 
968 12 1  9.494 26.254 45.439 
969 12 1 10.297 28.614 45.359 
970 12 1 10.195 30.254 47.325 
971 12 1  9.935 32.206  3.451 
972 12 1  9.624 34.285  5.041 
973 12 1  9.025 36.227  6.601 
974 12 1  8.332 38.053  8.307 
975 12 1  9.216 40.387  8.623 
976 12 1 10.427 42.618  9.138 
977 12 1 11.393 44.763  8.847 
978 12 1 11.892 47.061  8.013 
979 12 1 12.920  3.161  6.363 
980 12 1 13.959  1.496  4.886 
981 12 1 15.797 45.500  4.039 
982 12 1 17.417 43.910  2.808 
983 12 1 18.139 41.561  3.492 
984 12 1 18.556 39.173  4.419 
985 12 1 18.875 36.757  5.293 
986 12 1 19.309 34.403  6.233 