LAMMPS data file generated by aa2cg.

2000 atoms
1 atom types
1975 bonds
1 bond types
1950 angles
1 angle types
1925 dihedrals
1 dihedral types

 0.000 40.861 xlo xhi
 0.000 68.446 ylo yhi
 0.000 43.518 zlo zhi

Masses

1 24.022

Atoms # molecular

1 1 1 38.809 -3.735 32.860 
2 1 1 29.771 22.421 17.291 
3 2 1  8.303 42.596 27.449 
4 2 1 11.535 -6.599 19.186 
5 3 1 41.870 -8.424 41.523 
6 3 1 38.470 51.465 13.284 
7 4 1 44.020 55.943 21.196 
8 4 1 41.838 59.361 28.709 
9 5 1 26.930 -5.841 27.151 
10 5 1 27.795 59.069  9.349 
11 6 1 31.259 -0.245  4.471 
12 6 1 31.181 17.388 34.362 
13 7 1 10.185  4.959 12.571 
14 7 1 21.082 30.043  8.941 
15 8 1 33.558 40.413 23.308 
16 8 1 28.486 13.311 11.052 
17 9 1 42.886 49.261 14.821 
18 9 1 23.295  5.828 27.144 
19 10 1 19.604 10.079 11.000 
20 10 1 10.918 43.381 31.368 
21 11 1 27.520 50.153 19.935 
22 11 1  6.891 -4.359 43.474 
23 12 1 24.474  8.577 34.905 
24 12 1 21.906 28.037 38.851 
25 13 1 33.571  9.086 24.896 
26 13 1 12.182 59.173 11.688 
27 14 1 40.762 12.898 24.217 
28 14 1 27.423  8.725 20.074 
29 15 1 38.593 15.427 30.676 
30 15 1 30.054 53.314 29.790 
31 16 1 21.920 -0.852 19.962 
32 16 1 41.587 48.688 40.702 
33 17 1 45.116 39.060 13.851 
34 17 1  6.922 28.792 16.140 
35 18 1 37.446 36.209 43.163 
36 18 1 42.755 54.315 41.414 
37 19 1 14.706 55.327 12.874 
38 19 1 43.663 -3.032 28.939 
39 20 1 19.380 -0.226 10.719 
40 20 1 11.573 34.080 11.102 
41 21 1 27.217 29.615 10.281 
42 21 1  5.665 51.856 23.403 
43 22 1 22.941 42.624 15.327 
44 22 1 41.696 38.710 39.421 
45 23 1 41.133 33.144 42.520 
46 23 1  9.547 34.874 42.721 
47 24 1 19.909 33.760 11.022 
48 24 1 44.477  5.148 42.306 
49 25 1  7.351 -2.091 13.366 
50 25 1 25.060 44.032 35.235 
51 1 1 36.434 -3.785 33.920 
52 1 1 34.190 -3.882 35.109 
53 1 1 31.885 -4.069 36.130 
54 1 1 29.772 -4.644 37.204 
55 1 1 27.686 -5.388 38.571 
56 1 1 26.388 -6.654 39.886 
57 1 1 26.328 -8.629 41.385 
58 1 1 28.553 -8.865 42.549 
59 1 1 30.926 -8.662 43.588 
60 1 1 33.393 -8.244 44.272 
61 1 1 35.665 -7.231 44.789 
62 1 1 37.978 -6.473 44.932 
63 1 1 40.502 -6.210 44.652 
64 1 1 42.487 -6.326 46.248 
65 1 1 43.046 -8.590 46.406 
66 1 1 42.044 57.488 46.236 
67 1 1 40.885 55.173 45.932 
68 1 1 39.615 53.077 45.012 
69 1 1 38.764 50.892 43.996 
70 1 1 37.774 48.832 42.909 
71 1 1 37.752 46.801 41.789 
72 1 1 38.522 44.618 40.681 
73 1 1 38.116 43.017 39.136 
74 1 1 36.693 41.524 37.617 
75 1 1 35.566 39.846 36.047 
76 1 1 34.201 37.867 34.733 
77 1 1 31.731 37.438 34.061 
78 1 1 29.673 38.226 33.434 
79 1 1 28.036 40.062 32.829 
80 1 1 26.139 41.432 31.940 
81 1 1 24.500 42.850 30.731 
82 1 1 24.399 45.454 30.531 
83 1 1 22.975 46.669 28.736 
84 1 1 21.776 47.934 26.939 
85 1 1 21.685 50.499 26.822 
86 1 1 21.741 52.910 26.018 
87 1 1 19.822 54.586 26.263 
88 1 1 18.009 56.427 26.583 
89 1 1 16.775 58.586 27.032 
90 1 1 15.267 -7.808 27.535 
91 1 1 13.586 -5.871 27.830 
92 1 1 11.971 -3.904 27.958 
93 1 1 10.747 -1.629 27.852 
94 1 1  9.315  0.484 27.451 
95 1 1  9.053  3.004 27.545 
96 1 1  8.869  5.404 28.432 
97 1 1  8.562  7.912 29.144 
98 1 1  8.503  8.752 31.563 
99 1 1  6.626  9.731 33.153 
100 1 1  4.655 10.832 33.783 
101 1 1 43.337 10.826 33.093 
102 1 1 41.124 10.059 33.186 
103 1 1 38.851  9.159 34.026 
104 1 1 36.729  8.129 33.740 
105 1 1 34.788  6.881 32.571 
106 1 1 32.932  5.218 31.787 
107 1 1 31.016  3.598 31.078 
108 1 1 31.059  2.360 28.833 
109 1 1 31.415  0.904 26.691 
110 1 1 31.435 -0.453 24.452 
111 1 1 30.062 -2.482 23.491 
112 1 1 28.185 -3.397 22.557 
113 1 1 26.070 -4.101 21.706 
114 1 1 23.899 -3.713 23.112 
115 1 1 21.731 -2.757 24.178 
116 1 1 20.495 -0.928 24.777 
117 1 1 19.516  1.462 24.569 
118 1 1 18.412  3.773 24.136 
119 1 1 17.385  6.132 23.650 
120 1 1 18.360  7.709 21.868 
121 1 1 19.783  9.398 20.903 
122 1 1 21.811 10.923 20.822 
123 1 1 23.856 12.518 20.883 
124 1 1 25.965 13.837 21.179 
125 1 1 27.985 14.845 20.587 
126 1 1 29.723 16.209 19.068 
127 1 1 31.256 17.802 17.779 
128 1 1 30.552 19.927 17.081 
129 2 1  6.513 41.550 29.104 
130 2 1  4.115 41.184 28.484 
131 2 1 43.305 40.677 27.177 
132 2 1 42.365 39.265 25.221 
133 2 1 41.178 36.974 24.888 
134 2 1 39.417 36.688 23.239 
135 2 1 37.529 37.394 21.652 
136 2 1 35.836 37.579 19.835 
137 2 1 34.382 37.950 17.748 
138 2 1 32.908 38.371 15.583 
139 2 1 33.389 38.270 13.090 
140 2 1 34.139 37.546 10.930 
141 2 1 34.932 35.982  9.084 
142 2 1 35.585 34.539  6.952 
143 2 1 37.221 32.573  6.939 
144 2 1 38.803 30.618  7.580 
145 2 1 39.847 28.980  6.359 
146 2 1 41.804 28.338  4.808 
147 2 1 43.893 28.028  3.515 
148 2 1  4.817 27.889 45.246 
149 2 1  6.737 27.697 43.386 
150 2 1  6.691 29.727 42.219 
151 2 1  5.813 32.058 41.769 
152 2 1  5.742 33.755 40.197 
153 2 1  6.075 34.721 37.838 
154 2 1  7.986 34.285 36.230 
155 2 1  9.901 34.056 34.547 
156 2 1 11.091 33.766 32.374 
157 2 1 12.084 32.792 30.611 
158 2 1 13.218 30.545 30.084 
159 2 1 12.478 28.194 29.353 
160 2 1 11.333 26.750 28.076 
161 2 1  9.502 26.549 26.282 
162 2 1  7.518 26.591 24.683 
163 2 1  6.689 28.451 23.026 
164 2 1  5.598 30.228 21.432 
165 2 1  4.660 32.098 19.886 
166 2 1 44.898 34.308 19.502 
167 2 1 44.488 36.810 20.077 
168 2 1 44.119 39.297 20.826 
169 2 1 44.037 41.761 21.595 
170 2 1 43.850 44.164 22.363 
171 2 1  4.158 45.180 24.446 
172 2 1 44.960 47.439 25.718 
173 2 1 44.498 49.706 26.969 
174 2 1 43.245 51.578 27.274 
175 2 1 42.109 53.564 26.731 
176 2 1 40.975 55.327 25.859 
177 2 1 39.096 56.638 25.592 
178 2 1 37.566 58.429 25.619 
179 2 1 36.452 -8.131 24.336 
180 2 1 35.421 -6.179 23.129 
181 2 1 34.444 -4.595 21.429 
182 2 1 33.283 -3.397 19.386 
183 2 1 31.879 -1.846 18.160 
184 2 1 29.818 -0.419 17.335 
185 2 1 29.038  1.610 16.648 
186 2 1 29.117  4.221 16.348 
187 2 1 31.046  5.893 16.572 
188 2 1 32.404  7.551 18.153 
189 2 1 33.921  8.953 19.762 
190 2 1 35.632 10.099 21.256 
191 2 1 36.514 11.281 23.020 
192 2 1 36.372 12.526 25.195 
193 2 1 34.251 13.554 26.244 
194 2 1 31.929 13.433 26.314 
195 2 1 29.744 12.084 25.983 
196 2 1 27.270 11.535 25.436 
197 2 1 24.833 10.831 25.184 
198 2 1 24.048  8.816 23.968 
199 2 1 23.093  6.701 23.017 
200 2 1 22.578  4.691 21.554 
201 2 1 21.088  4.305 19.454 
202 2 1 18.765  3.420 19.264 
203 2 1 16.327  2.501 19.014 
204 2 1 15.427  0.016 19.001 
205 2 1 14.482 -2.352 18.996 
206 2 1 13.147 -4.564 19.170 
207 3 1 40.050 -9.012 39.987 
208 3 1 38.000 -9.880 40.907 
209 3 1 36.187 57.000 41.834 
210 3 1 34.393 55.799 40.483 
211 3 1 32.311 55.021 39.236 
212 3 1 29.981 54.383 38.248 
213 3 1 28.286 54.148 39.913 
214 3 1 27.581 54.439 42.169 
215 3 1 29.603 55.188 43.551 
216 3 1 29.585 54.874 46.149 
217 3 1 29.445 54.405  5.136 
218 3 1 29.865 54.331  7.709 
219 3 1 29.642 54.046 10.046 
220 3 1 28.264 54.353 11.858 
221 3 1 26.084 55.620 11.127 
222 3 1 24.167 57.087 10.253 
223 3 1 22.615 58.775  9.077 
224 3 1 21.103 -8.079  7.761 
225 3 1 19.560 -6.410  6.556 
226 3 1 17.977 -4.751  5.382 
227 3 1 16.398 -3.078  4.182 
228 3 1 14.399 -1.965  2.975 
229 3 1 13.274  0.373 46.451 
230 3 1 11.294  1.068  4.575 
231 3 1  9.285  1.372  6.314 
232 3 1  7.258  0.723  7.824 
233 3 1  5.389 -0.147  9.224 
234 3 1 44.382 -0.595 11.008 
235 3 1 42.530 -1.051 12.785 
236 3 1 41.384 -2.360 14.369 
237 3 1 41.099 -4.024 16.305 
238 3 1 42.930 -5.586 17.329 
239 3 1 45.024 -6.740 18.356 
240 3 1  5.927 -8.342 18.587 
241 3 1  7.483 -10.261 17.929 
242 3 1  6.629 55.620 17.932 
243 3 1  7.880 53.339 17.542 
244 3 1  6.841 51.085 17.134 
245 3 1  6.936 49.536 15.166 
246 3 1  6.814 47.536 13.573 
247 3 1  6.692 45.418 11.966 
248 3 1  6.426 42.986 12.954 
249 3 1  8.216 41.117 12.886 
250 3 1  9.899 39.169 13.259 
251 3 1 11.659 37.490 14.021 
252 3 1 13.210 35.860 15.204 
253 3 1 14.797 33.942 16.099 
254 3 1 14.219 31.463 16.792 
255 3 1 13.912 29.017 17.529 
256 3 1 12.554 27.231 17.612 
257 3 1 10.789 25.681 17.956 
258 3 1  9.451 24.509 19.632 
259 3 1 10.730 24.340 21.512 
260 3 1 12.704 24.384 22.654 
261 3 1 15.144 25.062 23.442 
262 3 1 17.244 25.959 24.468 
263 3 1 19.466 26.685 25.356 
264 3 1 21.702 27.330 26.442 
265 3 1 23.506 28.157 27.921 
266 3 1 25.474 28.628 29.497 
267 3 1 27.240 28.959 31.242 
268 3 1 29.233 28.800 32.818 
269 3 1 31.052 28.843 34.572 
270 3 1 31.990 29.313 36.639 
271 3 1 32.110 30.301 39.042 
272 3 1 30.724 32.446 39.662 
273 3 1 30.771 33.996 41.734 
274 3 1 30.352 35.066 43.966 
275 3 1 29.522 35.916 46.267 
276 3 1 28.562 38.200  3.561 
277 3 1 27.746 40.381  4.774 
278 3 1 26.918 42.463  5.959 
279 3 1 28.944 43.496  6.438 
280 3 1 31.397 43.858  6.709 
281 3 1 33.200 44.964  7.396 
282 3 1 34.322 46.823  8.807 
283 3 1 35.747 48.403 10.366 
284 3 1 37.169 49.960 11.745 
285 4 1 41.389 56.046 21.015 
286 4 1 38.870 56.601 20.813 
287 4 1 36.397 56.885 20.843 
288 4 1 34.112 56.802 21.773 
289 4 1 32.159 56.654 23.424 
290 4 1 31.885 56.800 25.992 
291 4 1 31.834 57.615 28.467 
292 4 1 32.310 58.366 30.834 
293 4 1 33.253 58.935 33.170 
294 4 1 34.867 59.254 35.128 
295 4 1 36.439 -9.752 36.848 
296 4 1 36.528 56.481 36.096 
297 4 1 35.951 54.824 34.529 
298 4 1 34.384 53.582 32.956 
299 4 1 34.215 53.937 30.736 
300 4 1 35.159 53.556 28.396 
301 4 1 36.027 53.248 26.028 
302 4 1 36.857 53.069 23.627 
303 4 1 37.280 52.873 21.086 
304 4 1 36.607 52.345 18.977 
305 4 1 34.681 51.557 17.531 
306 4 1 32.537 51.577 16.444 
307 4 1 30.074 52.114 15.900 
308 4 1 27.448 51.780 15.742 
309 4 1 25.256 51.685 14.847 
310 4 1 23.455 52.339 13.035 
311 4 1 21.594 53.164 11.512 
312 4 1 20.514 53.175  9.559 
313 4 1 19.656 51.874  7.843 
314 4 1 19.962 49.273  7.343 
315 4 1 19.479 47.160  8.845 
316 4 1 20.295 44.809  8.235 
317 4 1 21.118 42.442  7.769 
318 4 1 22.106 40.032  7.556 
319 4 1 23.364 37.912  7.525 
320 4 1 24.578 35.619  7.164 
321 4 1 25.648 33.350  6.271 
322 4 1 26.700 31.344  5.122 
323 4 1 28.243 30.160  3.892 
324 4 1 29.835 29.614 45.529 
325 4 1 30.619 28.330 43.587 
326 4 1 28.723 27.232 42.059 
327 4 1 26.982 26.226 40.564 
328 4 1 25.393 24.797 38.983 
329 4 1 23.895 23.509 37.201 
330 4 1 22.640 22.330 35.232 
331 4 1 21.149 21.180 33.570 
332 4 1 20.167 18.762 33.815 
333 4 1 19.007 16.446 33.942 
334 4 1 20.706 14.794 33.848 
335 4 1 23.045 14.191 34.482 
336 4 1 25.546 13.969 35.235 
337 4 1 28.128 13.768 35.545 
338 4 1 29.502 13.974 37.702 
339 4 1 30.784 14.496 39.898 
340 4 1 32.326 14.719 42.039 
341 4 1 33.604 14.846 44.316 
342 4 1 34.974 15.019 46.420 
343 4 1 36.657 15.256  4.888 
344 4 1 38.219 15.560  6.849 
345 4 1 39.002 15.053  8.976 
346 4 1 38.994 13.670 11.162 
347 4 1 37.004 12.235 12.105 
348 4 1 37.001 10.558 14.065 
349 4 1 37.208  8.874 15.899 
350 4 1 37.690  6.993 17.507 
351 4 1 38.249  5.289 19.294 
352 4 1 38.381  6.355 21.229 
353 4 1 39.068  7.500 23.276 
354 4 1 39.624  7.981 25.774 
355 4 1 38.673  6.787 27.852 
356 4 1 37.397  5.179 28.911 
357 4 1 35.994  3.062 29.138 
358 4 1 35.731  0.892 27.627 
359 4 1 36.346 -1.339 27.111 
360 4 1 37.429 -3.654 27.306 
361 4 1 38.427 -5.994 27.498 
362 4 1 40.860 -6.665 28.377 
363 5 1 26.380 -8.010 28.433 
364 5 1 27.009 58.198 27.918 
365 5 1 26.911 55.745 27.170 
366 5 1 26.855 53.229 26.694 
367 5 1 27.092 50.698 26.155 
368 5 1 27.091 48.206 25.599 
369 5 1 27.477 45.690 25.000 
370 5 1 26.769 43.351 25.775 
371 5 1 25.924 41.036 26.466 
372 5 1 24.787 38.841 27.082 
373 5 1 23.112 38.078 25.599 
374 5 1 21.021 38.301 24.211 
375 5 1 19.435 37.763 22.605 
376 5 1 18.038 36.375 21.023 
377 5 1 19.049 34.884 19.462 
378 5 1 18.373 35.256 16.943 
379 5 1 18.339 37.552 15.564 
380 5 1 17.556 39.798 15.226 
381 5 1 17.225 41.675 16.618 
382 5 1 17.556 43.348 18.514 
383 5 1 18.764 43.058 20.846 
384 5 1 19.059 45.081 22.145 
385 5 1 18.911 47.497 22.834 
386 5 1 19.002 49.979 23.302 
387 5 1 17.199 51.797 23.682 
388 5 1 15.479 53.671 24.113 
389 5 1 13.734 55.426 24.771 
390 5 1 11.843 57.111 25.514 
391 5 1 10.139 57.971 26.795 
392 5 1  8.677 59.079 28.223 
393 5 1  7.104 -7.423 28.865 
394 5 1  7.531 -5.039 29.856 
395 5 1  7.945 -2.690 30.881 
396 5 1  6.417 -0.670 30.776 
397 5 1  5.022  1.064 30.108 
398 5 1 44.806  2.710 28.438 
399 5 1 43.784  4.698 27.796 
400 5 1 43.323  7.263 27.758 
401 5 1 44.938  9.273 28.182 
402 5 1  5.613 11.276 28.651 
403 5 1  7.243 13.114 29.150 
404 5 1  9.086 13.877 30.335 
405 5 1 10.833 14.751 31.533 
406 5 1 12.435 15.575 32.882 
407 5 1 14.031 15.771 34.800 
408 5 1 15.896 15.685 36.585 
409 5 1 17.522 16.540 37.723 
410 5 1 18.617 18.582 38.824 
411 5 1 19.426 20.728 39.962 
412 5 1 20.015 22.586 41.576 
413 5 1 20.429 24.622 43.229 
414 5 1 20.292 27.134 42.753 
415 5 1 20.117 29.635 42.331 
416 5 1 20.685 31.890 41.383 
417 5 1 21.765 33.462 39.600 
418 5 1 21.801 34.518 37.478 
419 5 1 21.115 35.064 35.004 
420 5 1 18.983 35.482 33.726 
421 5 1 16.758 35.627 32.287 
422 5 1 14.863 36.722 31.609 
423 5 1 14.732 39.055 30.473 
424 5 1 15.065 41.414 31.427 
425 5 1 16.293 43.266 32.168 
426 5 1 18.405 44.309 33.228 
427 5 1 19.565 46.128 34.202 
428 5 1 19.607 48.625 34.577 
429 5 1 19.619 51.210 35.046 
430 5 1 19.861 53.745 35.101 
431 5 1 20.232 56.311 34.818 
432 5 1 19.795 58.413 36.254 
433 5 1 19.778 -7.719 37.469 
434 5 1 20.405 -6.168 39.114 
435 5 1 21.491 -5.537 41.348 
436 5 1 22.638 -4.738 43.450 
437 5 1 23.038 -6.139 45.681 
438 5 1 24.170 -5.886  4.550 
439 5 1 25.685 -5.567  6.658 
440 5 1 26.570 -7.351  8.290 
441 6 1 30.029  1.378  5.534 
442 6 1 28.389  3.215  5.605 
443 6 1 26.883  5.149  6.072 
444 6 1 25.281  7.129  6.275 
445 6 1 23.452  8.799  6.822 
446 6 1 21.322  9.349  5.570 
447 6 1 18.860  9.094  6.376 
448 6 1 17.373 11.174  6.460 
449 6 1 15.936 13.268  6.856 
450 6 1 16.055 15.311  8.027 
451 6 1 17.311 15.428 10.255 
452 6 1 18.240 16.017 12.591 
453 6 1 19.249 16.311 14.972 
454 6 1 19.156 18.653 16.171 
455 6 1 19.344 19.822 18.523 
456 6 1 20.364 21.010 20.600 
457 6 1 21.856 22.106 22.252 
458 6 1 23.476 23.167 24.032 
459 6 1 25.206 24.307 25.599 
460 6 1 27.365 24.870 26.012 
461 6 1 29.820 24.304 25.350 
462 6 1 32.323 24.164 24.985 
463 6 1 34.857 24.231 25.072 
464 6 1 36.925 23.434 25.751 
465 6 1 38.466 22.031 27.220 
466 6 1 40.280 20.732 27.930 
467 6 1 42.568 19.439 27.838 
468 6 1 43.665 17.580 28.594 
469 6 1 44.068 15.575 30.220 
470 6 1 42.463 13.863 30.301 
471 6 1 40.839 12.348 28.966 
472 6 1 38.810 11.274 28.821 
473 6 1 36.395 11.065 29.568 
474 6 1 34.029 10.899 30.266 
475 6 1 31.570 10.738 30.937 
476 6 1 29.425  9.771 31.085 
477 6 1 29.379  7.830 29.376 
478 6 1 28.776  7.094 27.245 
479 6 1 27.549  6.282 25.326 
480 6 1 27.724  4.795 23.505 
481 6 1 29.035  4.223 21.410 
482 6 1 31.387  3.044 21.540 
483 6 1 33.020  2.981 19.565 
484 6 1 34.546  2.563 17.511 
485 6 1 36.252  2.524 15.553 
486 6 1 38.852  2.225 15.768 
487 6 1 40.370  3.383 14.366 
488 6 1 40.926  5.071 12.724 
489 6 1 39.368  6.955 12.035 
490 6 1 38.987  7.539  9.544 
491 6 1 38.576  8.011  7.060 
492 6 1 39.155 10.138  6.119 
493 6 1 40.731 12.065  5.315 
494 6 1 42.009 14.099  4.559 
495 6 1 42.251 16.323  3.911 
496 6 1 41.544 18.867  3.817 
497 6 1 39.142 19.775  4.106 
498 6 1 36.666 20.392  4.514 
499 6 1 34.508 19.677  3.371 
500 6 1 32.188 19.120 45.757 
501 6 1 30.355 18.198 44.124 
502 6 1 28.568 17.111 42.562 
503 6 1 26.378 16.081 42.475 
504 6 1 24.447 14.737 43.223 
505 6 1 24.712 13.706 45.272 
506 6 1 25.917 12.239  3.444 
507 6 1 27.131 11.010  5.354 
508 6 1 28.756 10.330  7.285 
509 6 1 29.886  7.988  7.611 
510 6 1 31.910  7.136  6.226 
511 6 1 33.645  7.395  4.631 
512 6 1 34.968  8.227  2.520 
513 6 1 36.388 10.332 45.534 
514 6 1 36.333 11.841 43.425 
515 6 1 36.526 13.661 41.493 
516 6 1 35.864 15.226 39.634 
517 6 1 34.732 16.814 37.840 
518 6 1 32.931 17.175 36.168 
519 7 1  9.623  6.190 14.425 
520 7 1 11.315  8.150 14.690 
521 7 1 12.971  9.606 15.485 
522 7 1 14.571 10.973 16.294 
523 7 1 16.279 12.365 17.088 
524 7 1 17.936 13.619 18.487 
525 7 1 19.440 14.866 20.193 
526 7 1 20.951 15.896 21.942 
527 7 1 22.403 17.130 23.695 
528 7 1 23.882 18.310 25.430 
529 7 1 25.763 19.297 26.858 
530 7 1 27.591 20.188 28.371 
531 7 1 29.075 21.252 30.128 
532 7 1 30.241 22.426 32.074 
533 7 1 32.111 21.553 33.740 
534 7 1 34.048 21.001 35.451 
535 7 1 36.198 20.571 36.813 
536 7 1 38.093 19.400 37.804 
537 7 1 40.003 17.663 38.318 
538 7 1 42.014 16.325 38.885 
539 7 1 44.144 14.971 39.184 
540 7 1  5.294 13.444 39.796 
541 7 1  6.734 11.396 40.232 
542 7 1  8.502  9.626 40.569 
543 7 1 10.235  7.714 40.772 
544 7 1  9.638  5.134 41.232 
545 7 1  9.353  2.533 41.412 
546 7 1 11.027  1.024 42.685 
547 7 1 11.272 -1.491 42.384 
548 7 1 11.978 -4.023 42.201 
549 7 1 11.596 -6.213 42.889 
550 7 1 10.445 -8.055 44.325 
551 7 1 10.337 -10.194 45.347 
552 7 1 10.472 55.628 45.442 
553 7 1 11.356 53.823 46.575 
554 7 1 12.416 51.919  4.064 
555 7 1 13.410 49.636  4.640 
556 7 1 12.553 47.258  4.418 
557 7 1 11.406 44.981  4.849 
558 7 1  9.914 43.520  6.341 
559 7 1  8.483 42.112  8.070 
560 7 1  6.717 40.867  9.381 
561 7 1  5.663 38.481  8.950 
562 7 1  4.574 36.693  7.729 
563 7 1 44.045 35.558  5.903 
564 7 1 42.095 34.159  4.914 
565 7 1 40.125 33.021  3.655 
566 7 1 38.986 31.413 45.983 
567 7 1 38.831 29.092 44.856 
568 7 1 37.556 27.483 43.712 
569 7 1 35.570 26.697 42.206 
570 7 1 33.649 25.792 40.852 
571 7 1 31.624 24.977 39.400 
572 7 1 29.605 24.361 37.904 
573 7 1 27.882 23.880 35.969 
574 7 1 26.236 23.494 33.959 
575 7 1 25.987 24.422 31.569 
576 7 1 24.021 23.574 30.037 
577 7 1 22.287 22.497 28.600 
578 7 1 20.250 21.747 26.929 
579 7 1 18.672 21.253 24.957 
580 7 1 17.112 20.996 22.810 
581 7 1 15.969 20.909 20.519 
582 7 1 15.114 20.554 18.115 
583 7 1 12.922 21.364 17.577 
584 7 1 11.237 19.517 16.932 
585 7 1  9.639 18.589 15.467 
586 7 1  8.395 18.225 13.367 
587 7 1  7.705 17.882 10.921 
588 7 1  8.211 19.317  8.764 
589 7 1  9.455 18.087  7.068 
590 7 1 11.660 18.588  5.826 
591 7 1 13.108 20.135  6.549 
592 7 1 13.515 22.513  7.385 
593 7 1 14.691 24.236  8.580 
594 7 1 16.571 25.340  9.972 
595 7 1 17.967 26.903  8.931 
596 7 1 19.179 28.564  7.838 
597 8 1 35.266 39.806 25.058 
598 8 1 37.234 39.462 26.675 
599 8 1 38.972 39.577 28.551 
600 8 1 40.650 39.833 30.582 
601 8 1 39.779 39.718 32.958 
602 8 1 40.709 41.228 34.923 
603 8 1 42.130 42.773 36.490 
604 8 1 43.877 42.343 38.332 
605 8 1  4.904 42.283 39.985 
606 8 1  6.761 41.525 41.114 
607 8 1  8.707 40.075 41.017 
608 8 1 11.025 39.226 40.225 
609 8 1 12.046 37.341 38.752 
610 8 1 13.163 35.525 37.385 
611 8 1 14.088 33.573 35.949 
612 8 1 15.197 31.584 34.753 
613 8 1 16.185 29.795 33.099 
614 8 1 17.326 28.104 31.480 
615 8 1 18.847 26.432 31.448 
616 8 1 21.012 27.173 32.667 
617 8 1 23.153 27.592 34.026 
618 8 1 25.188 27.997 35.504 
619 8 1 26.274 29.452 36.998 
620 8 1 26.361 31.562 38.494 
621 8 1 25.773 31.094 40.635 
622 8 1 25.469 30.078 42.761 
623 8 1 24.602 28.257 44.308 
624 8 1 24.834 26.243 45.543 
625 8 1 26.055 24.203  3.106 
626 8 1 27.729 22.735  4.382 
627 8 1 29.611 21.661  5.621 
628 8 1 31.697 20.766  6.826 
629 8 1 33.924 20.133  7.936 
630 8 1 36.228 19.715  9.084 
631 8 1 38.439 19.272 10.286 
632 8 1 39.882 18.207 11.713 
633 8 1 40.851 16.553 13.429 
634 8 1 41.435 15.133 15.461 
635 8 1 42.113 12.665 15.536 
636 8 1 42.622 10.176 15.767 
637 8 1 42.697  7.581 15.846 
638 8 1 44.255  5.759 16.599 
639 8 1  5.717  6.796 16.853 
640 8 1  7.194  6.752 18.850 
641 8 1  7.321  8.940 19.611 
642 8 1  6.222 11.299 19.700 
643 8 1  4.730 13.373 19.921 
644 8 1 44.344 15.674 19.977 
645 8 1 43.022 17.925 19.689 
646 8 1 41.745 20.200 19.339 
647 8 1 40.682 20.976 17.164 
648 8 1 39.346 21.921 15.169 
649 8 1 38.152 22.692 13.053 
650 8 1 36.748 23.500 11.119 
651 8 1 35.486 25.465 10.036 
652 8 1 34.219 27.345  9.727 
653 8 1 32.920 29.484 10.575 
654 8 1 31.677 31.612 11.488 
655 8 1 30.733 33.682 12.653 
656 8 1 29.271 35.537 13.589 
657 8 1 28.084 37.614 14.590 
658 8 1 28.362 38.375 16.979 
659 8 1 26.763 37.462 18.629 
660 8 1 25.348 35.925 20.083 
661 8 1 23.986 34.822 21.997 
662 8 1 22.718 33.107 20.922 
663 8 1 21.355 31.802 19.084 
664 8 1 19.736 30.584 17.533 
665 8 1 18.263 29.268 15.932 
666 8 1 19.407 27.425 14.412 
667 8 1 20.602 28.468 12.559 
668 8 1 22.580 27.367 12.130 
669 8 1 23.996 25.509 11.162 
670 8 1 25.383 23.543 10.052 
671 8 1 26.718 21.546  8.953 
672 8 1 26.231 19.089  8.913 
673 8 1 25.855 16.589  8.897 
674 8 1 27.070 14.464  9.635 
675 9 1 41.113 47.926 14.695 
676 9 1 39.661 46.173 13.606 
677 9 1 38.137 44.619 12.203 
678 9 1 36.448 43.239 10.877 
679 9 1 36.827 41.643  8.897 
680 9 1 37.897 39.763  8.378 
681 9 1 39.160 37.552  8.792 
682 9 1 40.478 35.439  9.195 
683 9 1 42.081 33.444  9.462 
684 9 1 43.598 31.411  9.986 
685 9 1 44.851 29.315 10.880 
686 9 1  5.492 27.460 10.572 
687 9 1  6.915 25.668 10.265 
688 9 1  7.420 23.585 11.364 
689 9 1  6.486 23.202 13.685 
690 9 1  5.817 23.608 15.951 
691 9 1 44.307 24.632 15.824 
692 9 1 42.619 25.801 14.708 
693 9 1 41.412 27.008 12.767 
694 9 1 39.989 28.733 11.607 
695 9 1 38.527 30.659 11.659 
696 9 1 37.904 33.121 12.212 
697 9 1 37.862 35.543 12.910 
698 9 1 37.880 38.014 13.521 
699 9 1 38.055 40.465 14.295 
700 9 1 36.961 41.500 16.348 
701 9 1 35.909 42.618 18.399 
702 9 1 34.772 43.431 20.557 
703 9 1 33.496 44.269 22.633 
704 9 1 32.046 44.762 24.703 
705 9 1 30.907 43.537 26.246 
706 9 1 30.170 41.436 27.424 
707 9 1 29.222 39.212 28.201 
708 9 1 28.786 36.812 28.927 
709 9 1 28.410 34.420 29.846 
710 9 1 29.899 32.694 29.749 
711 9 1 32.349 31.961 30.080 
712 9 1 34.630 30.907 30.566 
713 9 1 35.044 29.271 32.523 
714 9 1 36.110 29.697 34.805 
715 9 1 36.829 29.773 37.319 
716 9 1 36.823 30.563 39.599 
717 9 1 35.832 31.713 41.686 
718 9 1 34.891 32.416 43.854 
719 9 1 34.192 33.521 46.060 
720 9 1 33.934 36.070 46.387 
721 9 1 33.798 38.485  3.630 
722 9 1 33.431 40.710  3.470 
723 9 1 31.661 41.055 45.198 
724 9 1 29.892 41.300 43.478 
725 9 1 28.051 41.291 41.649 
726 9 1 26.872 42.984 40.526 
727 9 1 25.195 44.723 39.845 
728 9 1 23.570 46.430 38.877 
729 9 1 22.978 48.489 38.203 
730 9 1 23.132 51.086 38.063 
731 9 1 23.452 53.633 37.966 
732 9 1 23.445 56.289 37.883 
733 9 1 24.063 58.325 36.873 
734 9 1 25.291 -8.535 35.210 
735 9 1 26.784 -6.519 34.600 
736 9 1 26.330 -5.612 32.567 
737 9 1 25.064 -4.105 31.092 
738 9 1 23.592 -2.530 29.656 
739 9 1 21.049 -2.226 29.217 
740 9 1 18.530 -1.865 28.698 
741 9 1 16.104 -1.472 28.068 
742 9 1 14.729  0.742 28.307 
743 9 1 13.899  2.978 28.850 
744 9 1 13.474  5.534 29.116 
745 9 1 12.994  7.982 29.443 
746 9 1 12.637 10.469 29.552 
747 9 1 14.419 12.339 29.603 
748 9 1 16.399 13.447 30.256 
749 9 1 18.375 11.875 30.625 
750 9 1 20.592 10.666 30.873 
751 9 1 22.450  9.671 29.854 
752 9 1 23.231  8.069 28.362 
753 10 1 17.865 11.200 11.977 
754 10 1 15.661 10.105 11.413 
755 10 1 13.668  8.887 10.460 
756 10 1 11.683  7.598  9.366 
757 10 1  9.815  6.554  7.917 
758 10 1  7.555  7.694  7.317 
759 10 1  5.298  8.680  6.844 
760 10 1 44.265  7.992  5.266 
761 10 1 42.069  7.283  3.991 
762 10 1 40.076  6.153  2.803 
763 10 1 37.825  5.035 45.577 
764 10 1 35.653  3.764 45.075 
765 10 1 33.551  2.576 44.327 
766 10 1 31.240  1.778 44.141 
767 10 1 28.756  1.676 43.922 
768 10 1 26.137  1.708 43.864 
769 10 1 25.495  1.322 46.081 
770 10 1 25.182 -1.192 46.374 
771 10 1 27.136 -2.764  3.401 
772 10 1 29.079 -4.363  4.043 
773 10 1 31.313 -4.636  4.333 
774 10 1 33.921 -4.145  4.644 
775 10 1 36.441 -3.831  4.887 
776 10 1 38.948 -3.479  5.215 
777 10 1 41.401 -2.875  5.558 
778 10 1 43.875 -2.309  5.523 
779 10 1  5.584 -2.715  5.222 
780 10 1  8.106 -3.443  5.005 
781 10 1 10.575 -4.177  4.688 
782 10 1 12.761 -5.452  4.617 
783 10 1 14.339 -7.190  4.159 
784 10 1 14.969 -9.365  2.818 
785 10 1 15.304 56.868 44.988 
786 10 1 15.755 54.724 43.574 
787 10 1 14.253 52.556 43.458 
788 10 1 13.314 52.266 41.436 
789 10 1 11.813 52.006 39.556 
790 10 1 10.328 51.460 37.578 
791 10 1  9.531 49.443 36.269 
792 10 1 10.106 48.280 34.303 
793 10 1 12.085 47.664 32.798 
794 10 1 14.598 47.269 32.241 
795 10 1 16.343 48.208 30.509 
796 10 1 17.804 50.265 31.301 
797 10 1 18.130 52.564 30.715 
798 10 1 17.891 55.115 30.932 
799 10 1 18.012 57.648 31.153 
800 10 1 17.210 -8.415 31.565 
801 10 1 16.161 -5.988 32.136 
802 10 1 15.053 -3.636 31.901 
803 10 1 13.472 -1.566 31.945 
804 10 1 11.685  0.312 32.297 
805 10 1  9.943  2.201 32.570 
806 10 1  7.831  3.735 32.846 
807 10 1  5.641  5.148 33.150 
808 10 1 44.336  5.857 32.492 
809 10 1 42.523  4.102 32.371 
810 10 1 40.378  2.881 32.847 
811 10 1 38.203  1.414 33.223 
812 10 1 35.914  0.612 34.153 
813 10 1 33.615  1.805 34.163 
814 10 1 31.381  0.462 34.016 
815 10 1 29.214 -0.821 33.935 
816 10 1 28.654 -1.572 31.831 
817 10 1 29.356 -3.121 29.681 
818 10 1 31.383 -4.737 29.673 
819 10 1 33.437 -6.094 29.876 
820 10 1 35.456 -7.553 30.187 
821 10 1 37.300 -9.344 30.730 
822 10 1 39.049 57.239 31.268 
823 10 1 40.736 55.423 31.707 
824 10 1 42.871 54.688 32.071 
825 10 1 45.083 53.972 32.570 
826 10 1  5.842 52.095 33.200 
827 10 1  6.412 49.828 32.131 
828 10 1  6.723 47.571 30.891 
829 10 1  7.370 45.173 31.798 
830 10 1  8.764 43.524 32.684 
831 11 1 29.178 51.003 21.390 
832 11 1 30.452 51.864 23.484 
833 11 1 32.372 51.646 24.676 
834 11 1 32.163 49.804 26.164 
835 11 1 31.380 48.475 28.182 
836 11 1 30.148 47.159 30.159 
837 11 1 28.848 45.864 31.935 
838 11 1 29.882 45.418 34.189 
839 11 1 30.829 45.307 36.601 
840 11 1 31.534 44.778 39.049 
841 11 1 32.937 44.406 41.152 
842 11 1 34.265 44.209 43.387 
843 11 1 35.833 44.235 45.438 
844 11 1 37.195 44.248  3.990 
845 11 1 38.532 44.402  6.081 
846 11 1 40.152 44.817  8.045 
847 11 1 41.045 47.013  8.643 
848 11 1 41.495 49.349  9.584 
849 11 1 41.730 51.762 10.577 
850 11 1 43.484 52.607 11.978 
851 11 1  4.161 53.580 13.629 
852 11 1 43.663 54.099 15.842 
853 11 1 41.606 54.719 16.927 
854 11 1 40.270 56.703 15.825 
855 11 1 39.167 58.412 14.178 
856 11 1 38.706 57.803 11.735 
857 11 1 38.106 56.846  9.524 
858 11 1 38.006 55.285  7.774 
859 11 1 38.410 53.068  6.536 
860 11 1 38.871 50.918  5.288 
861 11 1 39.551 48.702  4.104 
862 11 1 40.573 46.590  2.928 
863 11 1 41.483 44.458 45.231 
864 11 1 42.159 42.353 44.038 
865 11 1 43.074 40.193 42.921 
866 11 1 44.249 38.107 43.885 
867 11 1 45.450 36.012 44.624 
868 11 1  6.098 34.231 45.618 
869 11 1  7.945 32.714  2.978 
870 11 1  9.646 31.079  3.821 
871 11 1 10.378 29.468 45.890 
872 11 1 10.871 27.447 44.990 
873 11 1 12.488 25.650 44.307 
874 11 1 14.193 23.834 43.894 
875 11 1 14.889 21.597 43.669 
876 11 1 15.048 19.839 42.194 
877 11 1 13.342 19.947 40.435 
878 11 1 11.431 18.633 39.275 
879 11 1  8.781 19.126 39.150 
880 11 1  6.484 19.993 38.547 
881 11 1  4.847 19.240 36.720 
882 11 1 43.711 18.964 35.098 
883 11 1 42.364 17.043 33.866 
884 11 1 41.614 14.712 34.693 
885 11 1 39.140 13.900 35.054 
886 11 1 36.867 13.019 35.562 
887 11 1 34.576 11.913 35.800 
888 11 1 32.249 11.022 35.699 
889 11 1 30.354  9.952 36.765 
890 11 1 28.624  9.142 38.613 
891 11 1 28.426 10.160 40.967 
892 11 1 28.483 11.551 43.144 
893 11 1 29.918 11.825 45.144 
894 11 1 31.528 11.814  3.778 
895 11 1 33.236 11.699  5.758 
896 11 1 34.944 11.540  7.633 
897 11 1 34.816  9.808  9.399 
898 11 1 34.679  8.014 11.171 
899 11 1 34.321  5.732 11.658 
900 11 1 34.381  4.349  9.387 
901 11 1 34.663  2.974  7.218 
902 11 1 35.759  1.590  5.848 
903 11 1 37.931  1.182  5.024 
904 11 1 40.256  1.336  4.189 
905 11 1 42.675  1.283  3.279 
906 11 1 44.958  1.178 45.520 
907 11 1  6.129  0.385 44.543 
908 11 1  7.079 -1.786 44.165 
909 12 1 24.458  8.380 37.412 
910 12 1 23.919  8.128 39.896 
911 12 1 25.659  6.825 40.878 
912 12 1 27.564  5.236 40.956 
913 12 1 29.462  3.362 40.494 
914 12 1 31.470  2.003 39.530 
915 12 1 33.702  1.582 39.464 
916 12 1 36.110  1.699 40.256 
917 12 1 38.557  2.249 40.975 
918 12 1 39.517  4.582 41.485 
919 12 1 40.576  6.888 42.134 
920 12 1 41.791  9.047 42.495 
921 12 1 42.013 11.150 43.053 
922 12 1 41.377 13.280 43.558 
923 12 1 40.234 15.541 43.168 
924 12 1 39.408 17.894 42.658 
925 12 1 38.003 19.986 42.631 
926 12 1 36.254 21.829 43.180 
927 12 1 34.096 21.210 42.303 
928 12 1 32.257 20.508 40.565 
929 12 1 30.496 19.763 38.814 
930 12 1 28.655 19.321 37.144 
931 12 1 27.106 18.832 35.100 
932 12 1 25.622 18.264 33.003 
933 12 1 23.691 17.776 31.335 
934 12 1 21.699 17.088 29.953 
935 12 1 19.541 16.327 28.698 
936 12 1 18.727 16.843 26.175 
937 12 1 16.826 15.499 25.024 
938 12 1 15.237 13.985 23.735 
939 12 1 14.005 12.378 22.125 
940 12 1 12.910 10.661 20.446 
941 12 1 12.365  8.444 19.683 
942 12 1 12.395  5.848 19.561 
943 12 1 11.474  3.746 19.653 
944 12 1 11.156  1.652 21.130 
945 12 1 11.033 -0.573 22.367 
946 12 1 11.471 -2.805 23.427 
947 12 1 11.919 -5.413 23.909 
948 12 1 12.813 -7.431 23.280 
949 12 1 14.408 -9.102 21.878 
950 12 1 16.145 57.598 20.978 
951 12 1 18.134 56.426 21.263 
952 12 1 19.943 57.965 21.235 
953 12 1 21.663 -8.967 20.212 
954 12 1 23.489 -7.461 19.318 
955 12 1 25.292 -5.975 18.095 
956 12 1 26.191 -3.980 17.323 
957 12 1 25.015 -2.555 15.578 
958 12 1 23.539 -0.495 15.839 
959 12 1 21.954  1.420 15.340 
960 12 1 20.107  2.772 14.382 
961 12 1 18.053  1.291 14.025 
962 12 1 16.260 -0.432 14.002 
963 12 1 14.722 -2.402 13.995 
964 12 1 12.805 -4.144 14.105 
965 12 1 10.836 -5.816 14.158 
966 12 1  8.676 -7.199 14.156 
967 12 1  6.533 -8.631 13.915 
968 12 1  4.388 58.396 13.800 
969 12 1 43.886 57.880 11.743 
970 12 1 43.037 56.787  9.823 
971 12 1 42.816 54.959  8.062 
972 12 1 43.053 53.058  6.308 
973 12 1 43.506 51.092  4.784 
974 12 1 44.088 48.985  3.222 
975 12 1  5.203 47.490  2.870 
976 12 1  6.940 45.623 45.766 
977 12 1  8.603 43.840 44.766 
978 12 1 10.199 42.096 45.029 
979 12 1 11.702 40.446 45.099 
980 12 1 12.848 38.355 44.074 
981 12 1 13.894 36.238 43.013 
982 12 1 15.021 34.422 41.511 
983 12 1 16.017 32.706 39.940 
984 12 1 17.072 30.807 38.463 
985 12 1 18.702 29.833 37.030 
986 12 1 21.107 29.431 36.765 