LAMMPS data file generated by aa2cg.

2000 atoms
1 atom types
1975 bonds
1 bond types
1950 angles
1 angle types
1925 dihedrals
1 dihedral types

 0.000 72.157 xlo xhi
 0.000 37.842 ylo yhi
 0.000 44.923 zlo zhi

Masses

1 24.022

Atoms # molecular

1 1 1 38.029  7.498 43.789 
2 1 1 45.779 21.768 28.103 
3 2 1  8.775 36.811 39.735 
4 2 1 -1.072 10.894 18.760 
5 3 1 57.854 30.816 41.663 
6 3 1 43.247 10.398 26.429 
7 4 1 45.015 40.497  9.538 
8 4 1 58.214 34.224 12.706 
9 5 1  7.101 19.116 14.248 
10 5 1 23.679  8.212 20.021 
11 6 1 58.720 38.039 31.389 
12 6 1 37.139 36.100 29.734 
13 7 1  2.424 23.637 12.306 
14 7 1 -6.146 38.195  6.054 
15 8 1  7.440 40.702 25.300 
16 8 1 12.755 37.794  6.456 
17 9 1 38.230 41.309 22.996 
18 9 1 32.619 10.658 25.061 
19 10 1 -9.457  8.936  2.727 
20 10 1 24.272 14.970  3.318 
21 11 1 20.270 10.259  3.928 
22 11 1 26.184 30.822 42.104 
23 12 1 16.423 15.415  8.035 
24 12 1 -1.672 14.939 15.205 
25 13 1 27.851 34.387 44.798 
26 13 1 13.785 39.945 17.251 
27 14 1 28.561 25.935 41.596 
28 14 1 -4.951 11.614 35.974 
29 15 1 -4.677  8.340 38.737 
30 15 1 50.915 10.471  9.610 
31 16 1 48.047 32.866  8.513 
32 16 1 43.937 38.610 25.717 
33 17 1 33.498 25.745 23.221 
34 17 1 54.275 11.702 14.335 
35 18 1 21.210 21.709 42.078 
36 18 1 54.356 39.803 45.150 
37 19 1 -3.013 34.436 27.003 
38 19 1 45.715 32.476 45.647 
39 20 1 33.291 30.141 34.165 
40 20 1 24.572 15.502 28.289 
41 21 1 31.639 34.191 16.834 
42 21 1 14.080 14.209 39.527 
43 22 1 29.468 29.516  9.652 
44 22 1 -5.157  5.103 33.239 
45 23 1 13.585 26.631 25.157 
46 23 1 46.664  5.584 27.446 
47 24 1 48.458 38.802 38.625 
48 24 1 -3.199  7.332 16.573 
49 25 1 60.946 27.452 42.064 
50 25 1 27.398 32.044  5.814 
51 1 1 38.058  9.705 42.434 
52 1 1 38.023 12.053 41.278 
53 1 1 38.289 14.419 40.224 
54 1 1 39.101 15.760 38.480 
55 1 1 40.607 16.462 36.459 
56 1 1 42.078 17.152 34.457 
57 1 1 44.613 17.581 34.335 
58 1 1 47.109 18.035 33.794 
59 1 1 49.367 18.876 32.829 
60 1 1 51.405 19.880 31.633 
61 1 1 53.540 20.708 30.448 
62 1 1 55.798 20.806 30.935 
63 1 1 57.891 20.545 32.429 
64 1 1 59.938 20.448 33.893 
65 1 1 59.866 19.794 36.431 
66 1 1 59.033 19.669 38.485 
67 1 1 57.040 19.402 40.125 
68 1 1 56.045 17.996 41.774 
69 1 1 56.191 16.019 43.545 
70 1 1 56.864 14.446 45.388 
71 1 1 58.746 13.912 46.759 
72 1 1 60.913 14.102  2.958 
73 1 1 -9.074 13.935  4.053 
74 1 1 -7.501 13.303  5.626 
75 1 1 -6.415 11.660  7.338 
76 1 1 -5.606 10.978  9.491 
77 1 1 -4.117 11.209 11.372 
78 1 1 -1.972 10.884 12.749 
79 1 1  0.018 10.133 14.245 
80 1 1  2.075 11.472 15.172 
81 1 1  4.019 10.643 16.527 
82 1 1  6.501 10.531 16.094 
83 1 1  8.569  9.907 15.166 
84 1 1 10.510  9.167 14.470 
85 1 1 12.764  8.642 14.070 
86 1 1 14.871  8.032 13.216 
87 1 1 17.348  7.461 13.180 
88 1 1 19.998  7.307 13.150 
89 1 1 22.490  6.503 12.984 
90 1 1 23.772 42.422 12.815 
91 1 1 24.053 39.970 12.017 
92 1 1 23.733 37.911 13.459 
93 1 1 23.133 35.906 14.876 
94 1 1 20.981 35.273 15.448 
95 1 1 18.890 35.334 16.939 
96 1 1 16.796 35.770 18.276 
97 1 1 14.618 35.880 19.619 
98 1 1 12.265 35.844 20.766 
99 1 1  9.953 35.651 21.881 
100 1 1  7.666 35.761 23.065 
101 1 1  5.539 35.746 24.622 
102 1 1  3.848 36.303 26.354 
103 1 1  2.304 36.837 28.293 
104 1 1  0.379 36.800 30.099 
105 1 1 -1.464 36.709 31.916 
106 1 1 -0.838 37.426 34.009 
107 1 1 -0.512 38.460 36.054 
108 1 1 -0.551 39.309 38.328 
109 1 1 -0.592 40.866 40.395 
110 1 1 -1.287 42.049 42.620 
111 1 1 -1.732  6.858 42.638 
112 1 1 -1.980  9.442 42.250 
113 1 1 -2.141 11.990 42.203 
114 1 1 -4.172 13.462 41.533 
115 1 1 -6.238 14.145 40.608 
116 1 1 -8.250 14.954 39.760 
117 1 1 -10.410 15.420 39.240 
118 1 1 59.333 14.785 38.501 
119 1 1 58.705 12.822 36.961 
120 1 1 58.178 11.126 35.181 
121 1 1 57.712  9.614 33.182 
122 1 1 56.124 10.707 31.735 
123 1 1 53.947 11.784 30.839 
124 1 1 51.871 12.942 30.007 
125 1 1 50.620 14.804 29.205 
126 1 1 50.124 17.170 28.271 
127 1 1 49.266 19.563 27.578 
128 1 1 47.690 21.091 26.777 
129 2 1  9.105 35.191 41.746 
130 2 1  7.734 35.067 43.914 
131 2 1  6.098 34.866 45.850 
132 2 1  4.167 33.905 47.399 
133 2 1  2.283 32.818  3.783 
134 2 1  0.268 31.593  4.546 
135 2 1 -1.861 30.292  4.930 
136 2 1 -4.175 29.988  5.534 
137 2 1 -6.340 29.473  5.791 
138 2 1 -8.386 27.912  6.272 
139 2 1 -10.692 27.548  6.181 
140 2 1 58.998 28.213  6.005 
141 2 1 56.875 28.227  6.608 
142 2 1 55.183 27.625  8.446 
143 2 1 54.826 29.184 10.487 
144 2 1 54.462 30.649 12.626 
145 2 1 53.877 31.991 14.780 
146 2 1 51.823 31.568 16.422 
147 2 1 50.029 31.329 18.203 
148 2 1 48.304 31.231 20.095 
149 2 1 46.279 30.668 21.140 
150 2 1 44.087 29.425 21.648 
151 2 1 42.337 28.708 22.998 
152 2 1 40.510 28.358 24.355 
153 2 1 38.099 27.449 24.544 
154 2 1 37.403 25.065 25.001 
155 2 1 36.804 23.021 26.162 
156 2 1 36.043 21.462 28.137 
157 2 1 35.783 20.036 30.221 
158 2 1 34.193 18.204 31.125 
159 2 1 33.009 16.094 31.915 
160 2 1 31.782 14.075 32.895 
161 2 1 29.908 12.887 33.342 
162 2 1 27.257 12.547 32.999 
163 2 1 26.321 14.677 32.516 
164 2 1 26.110 17.220 32.234 
165 2 1 26.098 19.771 31.636 
166 2 1 26.364 21.958 32.930 
167 2 1 26.595 23.451 34.794 
168 2 1 28.421 22.900 36.527 
169 2 1 30.547 22.501 37.468 
170 2 1 32.506 22.549 38.703 
171 2 1 32.656 24.553 39.797 
172 2 1 33.619 26.864 40.417 
173 2 1 34.654 29.251 40.513 
174 2 1 35.970 30.198 38.545 
175 2 1 37.309 31.581 36.743 
176 2 1 39.687 31.271 35.713 
177 2 1 41.829 32.731 36.181 
178 2 1 43.909 32.940 34.895 
179 2 1 46.232 33.496 33.833 
180 2 1 48.504 34.076 32.767 
181 2 1 48.744 35.387 30.694 
182 2 1 48.875 36.458 28.352 
183 2 1 49.308 37.853 26.286 
184 2 1 48.852 39.432 24.633 
185 2 1 47.482 41.391 23.703 
186 2 1 46.061 43.279 22.671 
187 2 1 45.359  7.179 21.127 
188 2 1 44.908  8.467 18.930 
189 2 1 44.196  9.661 16.710 
190 2 1 44.575  8.794 14.308 
191 2 1 43.956 10.147 12.180 
192 2 1 44.883  9.198 10.259 
193 2 1 46.297  8.491  8.422 
194 2 1 47.334  7.204  6.812 
195 2 1 49.583  8.020  6.070 
196 2 1 51.930  8.999  5.836 
197 2 1 54.338  9.555  5.758 
198 2 1 56.866  9.841  5.586 
199 2 1 58.937  9.253  6.964 
200 2 1 60.949  8.408  8.396 
201 2 1 -10.019  8.560 10.232 
202 2 1 -9.169  9.685 12.264 
203 2 1 -8.974 10.836 14.563 
204 2 1 -7.651 11.381 16.551 
205 2 1 -5.415 12.746 16.633 
206 2 1 -3.222 11.958 17.775 
207 3 1 55.948 29.083 41.437 
208 3 1 53.878 28.098 42.010 
209 3 1 51.599 27.654 43.022 
210 3 1 49.047 27.180 43.727 
211 3 1 46.685 26.559 44.428 
212 3 1 44.862 28.224 45.224 
213 3 1 42.881 28.108 46.987 
214 3 1 40.676 27.522  3.354 
215 3 1 38.586 26.788  4.631 
216 3 1 36.357 26.218  5.789 
217 3 1 34.214 25.797  7.107 
218 3 1 32.099 25.085  8.360 
219 3 1 30.074 24.412  9.742 
220 3 1 28.165 23.237 10.220 
221 3 1 26.124 22.227 10.626 
222 3 1 23.890 21.859 11.828 
223 3 1 21.664 21.306 13.020 
224 3 1 19.556 21.579 14.187 
225 3 1 17.351 21.640 15.567 
226 3 1 17.540 23.114 17.437 
227 3 1 18.449 25.119 18.765 
228 3 1 19.254 27.042 20.258 
229 3 1 21.470 27.490 21.463 
230 3 1 23.724 28.015 22.437 
231 3 1 25.929 28.710 23.306 
232 3 1 28.069 29.717 24.323 
233 3 1 30.015 29.757 25.575 
234 3 1 31.677 28.698 27.182 
235 3 1 33.261 27.385 28.577 
236 3 1 35.175 26.548 29.798 
237 3 1 37.237 26.700 31.386 
238 3 1 39.185 26.917 33.073 
239 3 1 40.970 27.085 34.968 
240 3 1 42.678 26.995 36.867 
241 3 1 44.103 29.019 37.576 
242 3 1 45.085 29.295 39.967 
243 3 1 47.133 30.523 40.992 
244 3 1 49.221 31.424 42.111 
245 3 1 51.380 32.339 43.098 
246 3 1 53.570 32.752 44.385 
247 3 1 55.698 32.960 45.870 
248 3 1 57.820 32.839 47.394 
249 3 1 59.953 32.308  3.836 
250 3 1 -9.835 32.173  4.125 
251 3 1 -8.064 33.994  4.501 
252 3 1 -5.655 34.249  3.416 
253 3 1 -3.381 34.680  2.429 
254 3 1 -1.206 35.077 46.192 
255 3 1  0.874 35.282 44.745 
256 3 1  2.499 35.024 42.801 
257 3 1  4.262 34.446 41.091 
258 3 1  5.724 33.604 39.157 
259 3 1  7.097 32.891 37.071 
260 3 1  8.593 34.425 35.987 
261 3 1 10.899 35.782 35.892 
262 3 1 12.412 37.490 36.118 
263 3 1 13.261 38.125 38.528 
264 3 1 12.625 40.109 40.031 
265 3 1 13.969 42.188 40.628 
266 3 1 15.183 43.094 42.663 
267 3 1 16.992 43.861 44.283 
268 3 1 18.600  5.575 45.826 
269 3 1 19.866 42.225 47.631 
270 3 1 21.380 40.875  4.254 
271 3 1 23.181 39.737  5.730 
272 3 1 25.116 39.878  7.266 
273 3 1 26.943 40.716  8.837 
274 3 1 28.700 42.047 10.192 
275 3 1 30.487 43.577 11.061 
276 3 1 32.384  7.210 12.196 
277 3 1 34.445  8.589 13.016 
278 3 1 36.717  9.518 13.844 
279 3 1 39.212 10.386 14.146 
280 3 1 40.159 11.941 15.896 
281 3 1 40.989 12.743 18.026 
282 3 1 41.538 12.686 20.456 
283 3 1 43.448 11.381 21.733 
284 3 1 43.890 10.929 24.225 
285 4 1 47.164 39.979  8.209 
286 4 1 49.484 39.308  7.206 
287 4 1 51.743 38.752  6.060 
288 4 1 54.075 38.138  5.228 
289 4 1 56.298 37.595  4.068 
290 4 1 58.588 36.920  3.120 
291 4 1 60.863 37.310  2.278 
292 4 1 -9.003 38.126 46.470 
293 4 1 -6.516 38.695 46.072 
294 4 1 -4.185 39.635 46.449 
295 4 1 -1.883 40.038  1.659 
296 4 1  0.519 39.724 46.075 
297 4 1  2.877 39.655 46.125 
298 4 1  4.725 39.262  3.047 
299 4 1  6.748 37.771  3.682 
300 4 1  8.711 36.170  4.242 
301 4 1 10.425 34.288  4.916 
302 4 1 11.882 32.590  6.012 
303 4 1 13.308 31.014  7.397 
304 4 1 14.669 29.201  8.586 
305 4 1 15.816 27.252  8.283 
306 4 1 16.799 25.621  6.657 
307 4 1 17.551 23.645  5.233 
308 4 1 18.269 21.745  3.593 
309 4 1 19.926 20.385  2.723 
310 4 1 22.168 19.694 46.552 
311 4 1 24.531 18.977 45.852 
312 4 1 27.031 18.280 45.503 
313 4 1 29.130 19.769 44.801 
314 4 1 31.201 21.169 44.384 
315 4 1 33.239 22.547 43.770 
316 4 1 35.231 22.970 45.316 
317 4 1 37.254 23.107 46.861 
318 4 1 38.567 22.256  3.577 
319 4 1 38.363 20.862  5.654 
320 4 1 37.952 19.576  7.781 
321 4 1 37.225 18.257  9.860 
322 4 1 37.197 18.012 12.142 
323 4 1 38.003 18.347 14.617 
324 4 1 37.593 18.917 16.883 
325 4 1 36.323 19.855 18.929 
326 4 1 35.204 20.886 21.034 
327 4 1 33.819 21.443 23.131 
328 4 1 32.282 21.016 24.922 
329 4 1 30.964 19.377 26.273 
330 4 1 29.660 17.597 27.849 
331 4 1 29.807 15.231 28.183 
332 4 1 30.171 12.889 27.999 
333 4 1 28.218 11.402 28.697 
334 4 1 26.539  9.673 29.549 
335 4 1 25.197  8.445 31.057 
336 4 1 25.016  7.709 33.238 
337 4 1 26.131  6.871 35.500 
338 4 1 27.189  6.244 37.761 
339 4 1 28.061 43.311 40.044 
340 4 1 28.818 42.530 42.356 
341 4 1 29.366 42.097 44.828 
342 4 1 31.114  5.560 46.122 
343 4 1 33.222  6.674 47.202 
344 4 1 35.546  7.713  2.751 
345 4 1 38.003  8.391  3.009 
346 4 1 40.508  8.919  3.399 
347 4 1 42.746  7.612  3.109 
348 4 1 44.238  5.852  3.190 
349 4 1 45.174 41.419  4.031 
350 4 1 43.649 39.416  4.356 
351 4 1 42.165 38.998  6.484 
352 4 1 40.843 38.805  8.639 
353 4 1 39.460 38.682 10.843 
354 4 1 40.319 37.869 13.122 
355 4 1 41.417 36.870 15.194 
356 4 1 43.123 36.392 16.723 
357 4 1 45.617 36.351 17.247 
358 4 1 48.188 36.032 17.422 
359 4 1 50.825 35.941 17.444 
360 4 1 53.399 35.749 17.562 
361 4 1 54.863 35.672 15.428 
362 4 1 56.431 35.896 13.349 
363 5 1  6.378 20.769 16.177 
364 5 1  5.787 22.564 17.803 
365 5 1  4.936 23.645 19.591 
366 5 1  3.297 23.981 21.455 
367 5 1  0.799 23.842 21.432 
368 5 1 -1.353 24.444 20.830 
369 5 1 -2.921 25.655 19.304 
370 5 1 -4.807 26.810 18.001 
371 5 1 -6.406 28.823 18.196 
372 5 1 -8.079 29.703 16.303 
373 5 1 -9.168 29.339 14.193 
374 5 1 -7.742 28.483 12.117 
375 5 1 -6.385 27.429 10.300 
376 5 1 -4.971 26.269  8.473 
377 5 1 -2.772 25.789  7.654 
378 5 1 -2.198 24.612  9.679 
379 5 1 -2.294 23.668 12.034 
380 5 1 -2.291 25.578 13.327 
381 5 1 -2.290 27.930 13.544 
382 5 1 -3.517 30.143 13.701 
383 5 1 -4.484 32.481 13.720 
384 5 1 -5.918 34.647 13.805 
385 5 1 -6.487 36.587 12.360 
386 5 1 -6.044 38.393 10.856 
387 5 1 -4.615 40.268  9.781 
388 5 1 -3.391 42.113  8.600 
389 5 1 -1.922  6.236  9.608 
390 5 1 -0.670  8.089  8.288 
391 5 1 -0.869 10.153  7.403 
392 5 1 -1.854 12.460  6.983 
393 5 1 -3.002 14.766  6.739 
394 5 1 -3.826 17.151  6.721 
395 5 1 -3.589 19.075  8.463 
396 5 1 -5.674 19.961  9.663 
397 5 1 -5.998 21.123 11.888 
398 5 1 -6.955 22.222 14.029 
399 5 1 -7.188 22.858 16.246 
400 5 1 -6.381 22.367 18.680 
401 5 1 -5.471 21.975 21.056 
402 5 1 -3.433 20.538 21.838 
403 5 1 -1.232 19.624 21.695 
404 5 1  1.307 19.467 21.185 
405 5 1  3.639 18.854 20.417 
406 5 1  6.157 18.186 20.183 
407 5 1  8.520 17.669 19.317 
408 5 1 10.214 16.491 18.116 
409 5 1 11.101 14.464 16.719 
410 5 1 11.238 14.145 14.118 
411 5 1 11.981 13.546 11.669 
412 5 1 12.820 12.598  9.437 
413 5 1 13.354 11.279  7.243 
414 5 1 14.391  9.902  5.351 
415 5 1 15.011  9.267  3.228 
416 5 1 14.736  9.774 45.632 
417 5 1 14.612  9.788 43.129 
418 5 1 14.550  9.966 40.598 
419 5 1 13.143  8.572 38.949 
420 5 1 11.976  7.332 36.872 
421 5 1 11.143  6.250 34.727 
422 5 1 10.545 43.158 32.448 
423 5 1  9.489 42.431 30.177 
424 5 1 10.188  5.637 28.214 
425 5 1 11.847  6.421 26.539 
426 5 1 13.884  7.320 25.353 
427 5 1 15.963  8.263 24.327 
428 5 1 18.343  8.861 23.334 
429 5 1 20.319 10.098 22.714 
430 5 1 21.769 12.214 22.250 
431 5 1 23.388 14.178 21.944 
432 5 1 24.962 16.294 21.781 
433 5 1 26.379 18.374 21.292 
434 5 1 28.387 19.388 20.924 
435 5 1 30.481 19.456 19.840 
436 5 1 30.502 17.445 18.115 
437 5 1 29.688 15.358 17.288 
438 5 1 27.946 13.458 17.737 
439 5 1 26.422 11.727 18.717 
440 5 1 24.928 10.136 19.880 
441 6 1 59.684 36.131 32.723 
442 6 1 59.630 35.717 35.098 
443 6 1 58.733 35.052 37.355 
444 6 1 56.309 35.305 38.152 
445 6 1 54.260 35.922 39.582 
446 6 1 52.308 36.224 41.185 
447 6 1 50.392 36.650 42.865 
448 6 1 49.917 38.460 44.558 
449 6 1 49.924 40.302 46.417 
450 6 1 50.748 42.430  2.485 
451 6 1 53.261 42.581  3.404 
452 6 1 55.670 42.918  4.187 
453 6 1 58.146 42.852  4.824 
454 6 1 59.183 42.132  2.827 
455 6 1 58.919 41.940 45.434 
456 6 1 58.263 42.594 43.016 
457 6 1 56.057 43.101 42.271 
458 6 1 53.795 42.083 41.760 
459 6 1 51.636 40.932 41.374 
460 6 1 49.414 41.770 41.555 
461 6 1 47.031 42.151 42.299 
462 6 1 44.447 42.099 42.244 
463 6 1 42.996 43.119 44.111 
464 6 1 40.716 42.354 45.167 
465 6 1 39.020 40.731 46.311 
466 6 1 37.665 38.821 47.337 
467 6 1 38.121 37.380  4.496 
468 6 1 38.100 35.917  6.609 
469 6 1 38.032 34.446  8.813 
470 6 1 38.582 33.613 11.049 
471 6 1 39.118 32.402 12.838 
472 6 1 39.481 30.283 14.290 
473 6 1 39.699 28.205 15.716 
474 6 1 39.494 26.150 17.207 
475 6 1 39.578 24.848 19.189 
476 6 1 40.571 23.866 21.307 
477 6 1 40.551 22.556 23.246 
478 6 1 40.037 20.117 22.845 
479 6 1 40.481 17.953 22.209 
480 6 1 41.111 16.780 24.079 
481 6 1 40.810 14.938 25.981 
482 6 1 40.552 13.536 28.084 
483 6 1 40.156 12.550 30.470 
484 6 1 39.744 11.709 32.921 
485 6 1 39.646 10.323 35.237 
486 6 1 37.743  8.796 36.222 
487 6 1 35.931  7.425 37.410 
488 6 1 34.110  5.792 38.252 
489 6 1 32.426 41.655 38.685 
490 6 1 32.688 39.339 38.880 
491 6 1 34.056 37.283 38.517 
492 6 1 35.496 35.068 38.592 
493 6 1 37.902 35.509 38.826 
494 6 1 40.243 36.316 38.077 
495 6 1 42.220 37.659 37.259 
496 6 1 43.853 39.672 37.197 
497 6 1 45.440 41.639 37.400 
498 6 1 46.860 43.758 37.476 
499 6 1 48.558  7.337 38.159 
500 6 1 49.686  8.903 39.302 
501 6 1 50.499 10.636 40.676 
502 6 1 52.119 11.536 42.061 
503 6 1 54.459 11.927 42.836 
504 6 1 56.595 11.049 41.798 
505 6 1 57.834  9.385 40.639 
506 6 1 58.123  7.736 38.725 
507 6 1 58.115  6.433 36.433 
508 6 1 57.884 43.021 34.210 
509 6 1 57.325 42.233 31.819 
510 6 1 55.044 42.346 31.191 
511 6 1 52.891 42.580 30.325 
512 6 1 50.708 41.793 30.031 
513 6 1 48.396 41.258 30.849 
514 6 1 47.878 39.131 32.210 
515 6 1 45.616 38.378 32.326 
516 6 1 43.430 37.221 31.612 
517 6 1 41.891 37.722 29.645 
518 6 1 39.488 37.010 29.656 
519 7 1  4.426 25.193 12.843 
520 7 1  4.693 26.457 15.061 
521 7 1  3.802 27.459 16.786 
522 7 1  1.813 28.617 17.944 
523 7 1  0.702 30.929 17.600 
524 7 1 -0.253 33.283 17.067 
525 7 1 -1.662 34.974 18.323 
526 7 1 -2.348 36.937 19.590 
527 7 1 -0.249 38.000 18.833 
528 7 1  2.068 37.970 18.133 
529 7 1  4.542 38.401 18.313 
530 7 1  6.832 39.126 19.214 
531 7 1  8.968 39.859 20.535 
532 7 1 11.109 40.554 21.767 
533 7 1 13.179 41.561 21.874 
534 7 1 15.514 42.448 21.123 
535 7 1 17.908 43.432 20.607 
536 7 1 18.914  6.435 18.334 
537 7 1 19.594 42.590 16.983 
538 7 1 19.068 40.474 15.460 
539 7 1 18.738 38.202 14.195 
540 7 1 19.053 38.929 11.964 
541 7 1 20.000 40.613 10.191 
542 7 1 20.883 42.514  8.675 
543 7 1 21.942  6.572  7.432 
544 7 1 24.168  7.548  8.273 
545 7 1 25.857  8.045  9.689 
546 7 1 27.363  8.966 11.286 
547 7 1 29.142 10.528 12.232 
548 7 1 31.127 12.000 13.096 
549 7 1 33.203 12.985 14.077 
550 7 1 34.621 13.962 15.614 
551 7 1 35.724 14.673 17.388 
552 7 1 36.904 14.394 19.608 
553 7 1 37.262 14.223 22.249 
554 7 1 37.617 12.235 23.945 
555 7 1 37.920 10.276 25.682 
556 7 1 37.626  8.238 27.186 
557 7 1 35.312  7.595 28.127 
558 7 1 33.039  6.950 29.234 
559 7 1 30.731  6.249 30.037 
560 7 1 28.567 42.941 30.610 
561 7 1 26.561 41.528 31.345 
562 7 1 24.453 40.201 32.076 
563 7 1 22.352 38.923 32.824 
564 7 1 20.197 37.774 33.723 
565 7 1 18.259 36.189 34.435 
566 7 1 16.316 34.556 34.801 
567 7 1 15.677 33.629 36.862 
568 7 1 14.571 33.939 39.152 
569 7 1 13.736 33.656 41.415 
570 7 1 14.239 32.536 43.585 
571 7 1 15.194 31.526 45.697 
572 7 1 15.763 30.186  2.911 
573 7 1 17.750 28.652  3.192 
574 7 1 19.817 27.335  3.701 
575 7 1 21.842 25.682  4.016 
576 7 1 23.524 24.443  3.155 
577 7 1 25.563 24.014 46.942 
578 7 1 28.063 23.443 46.768 
579 7 1 30.051 24.879 46.078 
580 7 1 32.214 26.259 45.483 
581 7 1 34.369 27.687 45.014 
582 7 1 36.289 29.319 44.687 
583 7 1 37.747 30.473 46.464 
584 7 1 39.249 31.786  3.137 
585 7 1 41.032 32.860  4.707 
586 7 1 42.583 34.253  6.220 
587 7 1 44.999 35.169  5.687 
588 7 1 46.972 35.071  4.572 
589 7 1 48.919 34.772  3.431 
590 7 1 50.710 34.737  5.298 
591 7 1 52.637 33.240  5.960 
592 7 1 54.332 33.535  8.002 
593 7 1 56.525 34.809  7.732 
594 7 1 58.818 35.921  7.496 
595 7 1 61.243 36.892  7.258 
596 7 1 -8.440 37.581  6.818 
597 8 1  6.430 39.924 27.503 
598 8 1  4.972 39.653 29.586 
599 8 1  3.434 39.947 31.622 
600 8 1  3.511 40.919 34.095 
601 8 1  3.333 42.044 36.395 
602 8 1  2.850 43.062 38.726 
603 8 1  2.908  6.787 40.461 
604 8 1  3.514  9.281 40.431 
605 8 1  5.629 10.306 39.165 
606 8 1  7.401 11.148 37.360 
607 8 1  9.510 12.209 37.834 
608 8 1 11.040 12.534 36.164 
609 8 1 11.952 13.801 34.090 
610 8 1 13.628 14.621 32.741 
611 8 1 16.038 15.300 32.140 
612 8 1 18.485 15.543 31.468 
613 8 1 20.456 16.255 33.005 
614 8 1 22.191 16.399 34.927 
615 8 1 23.574 15.845 37.145 
616 8 1 25.917 15.725 37.002 
617 8 1 28.306 16.566 36.662 
618 8 1 30.738 17.246 35.931 
619 8 1 31.279 19.225 34.287 
620 8 1 31.722 21.466 32.963 
621 8 1 31.721 22.788 31.042 
622 8 1 30.696 23.607 28.822 
623 8 1 28.675 22.756 28.197 
624 8 1 26.956 21.071 27.328 
625 8 1 25.047 19.823 26.190 
626 8 1 23.102 18.658 25.063 
627 8 1 20.958 17.753 23.885 
628 8 1 18.673 17.781 22.790 
629 8 1 16.484 18.551 22.562 
630 8 1 14.354 18.606 23.225 
631 8 1 12.080 17.414 23.781 
632 8 1  9.682 16.437 24.396 
633 8 1  7.219 15.874 24.574 
634 8 1  4.623 15.463 24.350 
635 8 1  2.085 15.244 24.092 
636 8 1 -0.456 15.024 23.652 
637 8 1 -2.892 14.649 23.001 
638 8 1 -5.415 14.219 22.343 
639 8 1 -7.771 14.096 21.278 
640 8 1 -9.310 12.224 20.673 
641 8 1 -11.141 10.505 20.109 
642 8 1 59.520 10.394 18.043 
643 8 1 59.113  9.086 16.074 
644 8 1 58.831  7.877 14.147 
645 8 1 57.616  7.089 11.976 
646 8 1 56.083  6.557  9.847 
647 8 1 53.929 42.956  9.698 
648 8 1 51.618  5.512 10.125 
649 8 1 49.310  5.416 11.266 
650 8 1 47.338  5.132 12.858 
651 8 1 45.208 42.852 13.884 
652 8 1 43.129 42.530 14.824 
653 8 1 41.783 42.091 16.873 
654 8 1 39.538 40.935 16.676 
655 8 1 37.203 40.030 16.628 
656 8 1 35.432 38.908 15.750 
657 8 1 34.592 37.299 13.853 
658 8 1 34.090 35.576 11.930 
659 8 1 33.488 33.568 10.499 
660 8 1 34.157 32.315  8.346 
661 8 1 34.689 30.944  6.315 
662 8 1 34.000 29.918  4.350 
663 8 1 31.905 28.395  4.441 
664 8 1 29.665 27.534  5.215 
665 8 1 27.338 26.983  6.160 
666 8 1 25.240 26.513  7.447 
667 8 1 23.184 25.904  8.866 
668 8 1 21.218 25.946 10.423 
669 8 1 20.206 28.165 11.261 
670 8 1 19.007 30.162 12.236 
671 8 1 18.404 32.456 12.612 
672 8 1 17.454 34.001 10.694 
673 8 1 16.078 35.613  9.156 
674 8 1 14.595 36.935  7.496 
675 9 1 37.985 41.758 25.485 
676 9 1 37.562 41.267 27.706 
677 9 1 35.385 40.460 28.642 
678 9 1 33.223 39.455 29.504 
679 9 1 30.968 38.583 30.327 
680 9 1 28.969 37.236 31.337 
681 9 1 26.850 35.933 32.012 
682 9 1 24.892 34.529 32.798 
683 9 1 22.855 33.224 33.699 
684 9 1 20.859 31.659 34.394 
685 9 1 19.050 30.103 35.172 
686 9 1 17.430 28.234 35.982 
687 9 1 16.199 26.428 37.292 
688 9 1 17.205 24.094 37.824 
689 9 1 15.912 22.868 39.558 
690 9 1 13.934 21.955 41.071 
691 9 1 12.654 19.823 40.542 
692 9 1 10.108 19.630 40.993 
693 9 1  7.712 19.210 41.725 
694 9 1  6.256 18.161 43.113 
695 9 1  5.675 16.193 44.728 
696 9 1  7.315 14.440 45.733 
697 9 1  8.778 13.726 47.496 
698 9 1 10.250 14.129  4.673 
699 9 1 10.163 15.767  6.660 
700 9 1 10.344 17.304  8.719 
701 9 1 12.138 17.677 10.432 
702 9 1 14.000 18.273 12.141 
703 9 1 16.062 17.886 13.029 
704 9 1 18.594 17.438 13.074 
705 9 1 20.451 17.221 11.320 
706 9 1 21.603 16.381  9.532 
707 9 1 22.022 15.501  7.166 
708 9 1 20.069 15.342  5.449 
709 9 1 18.355 15.284  3.563 
710 9 1 16.440 14.583  2.414 
711 9 1 14.396 14.050  1.401 
712 9 1 12.792 14.245 44.408 
713 9 1 10.943 13.895 42.907 
714 9 1  8.740 12.658 42.090 
715 9 1  7.739 10.404 42.883 
716 9 1  6.260  8.592 44.020 
717 9 1  5.765  7.251 45.654 
718 9 1  6.007  6.516  3.211 
719 9 1  6.505  5.184  5.115 
720 9 1  7.531 41.129  6.636 
721 9 1  8.195 39.153  8.011 
722 9 1  8.910 36.936  9.198 
723 9 1  9.548 34.709 10.418 
724 9 1 10.194 32.504 11.671 
725 9 1 10.079 30.967 13.330 
726 9 1  9.648 29.916 15.588 
727 9 1  9.034 28.103 16.836 
728 9 1  8.840 26.048 17.924 
729 9 1  9.128 24.419 19.840 
730 9 1  9.025 22.951 21.930 
731 9 1  7.605 21.406 23.002 
732 9 1  5.566 20.894 24.039 
733 9 1  3.505 21.306 25.442 
734 9 1  1.565 21.881 27.029 
735 9 1 -0.255 22.638 28.670 
736 9 1 -0.119 24.794 30.057 
737 9 1  0.765 26.513 31.271 
738 9 1  2.948 27.909 31.587 
739 9 1  5.310 29.078 31.760 
740 9 1  7.744 30.089 31.815 
741 9 1  9.331 31.715 32.289 
742 9 1 10.702 33.673 32.196 
743 9 1 12.661 35.159 31.325 
744 9 1 14.718 36.524 30.644 
745 9 1 16.737 37.878 30.003 
746 9 1 18.823 39.093 29.151 
747 9 1 20.904 40.259 28.227 
748 9 1 23.076 41.220 27.385 
749 9 1 25.351 42.361 26.846 
750 9 1 27.140  6.318 26.088 
751 9 1 28.970  7.772 25.140 
752 9 1 30.832  9.242 25.042 
753 10 1 -11.624  9.455  2.293 
754 10 1 58.096  8.980  1.782 
755 10 1 55.568  8.307 46.380 
756 10 1 53.114  8.033 45.492 
757 10 1 50.774  7.655 44.498 
758 10 1 48.446  7.831 44.495 
759 10 1 46.234  8.886 44.570 
760 10 1 44.650 11.006 44.351 
761 10 1 45.411 13.297 44.658 
762 10 1 46.092 15.419 46.132 
763 10 1 46.515 17.570 47.449 
764 10 1 46.671 19.606  4.110 
765 10 1 45.086 19.903  6.229 
766 10 1 43.332 19.960  8.200 
767 10 1 41.864 19.354 10.101 
768 10 1 41.621 20.044 12.585 
769 10 1 41.791 20.541 15.124 
770 10 1 42.939 20.556 17.166 
771 10 1 44.735 20.043 18.961 
772 10 1 46.614 19.898 20.636 
773 10 1 48.818 19.905 21.836 
774 10 1 50.907 19.817 23.212 
775 10 1 53.151 19.647 24.640 
776 10 1 53.520 18.229 26.702 
777 10 1 55.857 17.185 27.368 
778 10 1 57.800 18.360 28.546 
779 10 1 60.104 19.435 28.834 
780 10 1 -10.493 21.061 28.472 
781 10 1 -9.988 22.165 30.508 
782 10 1 -8.663 22.706 32.660 
783 10 1 -8.338 24.038 34.425 
784 10 1 -8.048 26.116 35.855 
785 10 1 -7.278 28.033 37.483 
786 10 1 -6.471 29.948 38.972 
787 10 1 -5.098 30.595 40.730 
788 10 1 -2.939 29.195 40.469 
789 10 1 -0.789 27.884 39.981 
790 10 1  0.786 27.242 38.540 
791 10 1  2.162 26.398 36.928 
792 10 1  3.938 24.858 35.846 
793 10 1  6.282 24.034 36.871 
794 10 1  8.320 24.271 37.992 
795 10 1 10.173 25.259 39.395 
796 10 1 10.724 25.647 41.888 
797 10 1 12.831 26.927 42.429 
798 10 1 15.004 27.987 42.732 
799 10 1 16.907 29.288 41.980 
800 10 1 18.535 30.071 40.194 
801 10 1 20.475 30.610 39.003 
802 10 1 23.053 30.979 38.609 
803 10 1 25.559 31.624 37.830 
804 10 1 27.780 32.498 36.944 
805 10 1 29.994 33.297 36.039 
806 10 1 31.569 34.662 34.831 
807 10 1 32.631 36.451 33.286 
808 10 1 34.861 37.706 33.669 
809 10 1 37.045 38.977 33.793 
810 10 1 39.291 40.261 33.341 
811 10 1 41.531 41.357 33.120 
812 10 1 43.805 42.565 33.014 
813 10 1 46.074 43.749 32.801 
814 10 1 48.142  7.477 32.565 
815 10 1 49.941  8.759 33.402 
816 10 1 49.713 11.210 34.467 
817 10 1 49.692 13.664 35.489 
818 10 1 48.912 14.309 37.899 
819 10 1 47.458 15.263 39.444 
820 10 1 45.280 16.446 40.297 
821 10 1 43.458 16.756 41.789 
822 10 1 41.793 16.174 43.655 
823 10 1 41.032 13.767 44.547 
824 10 1 39.135 13.505 46.308 
825 10 1 36.964 12.986 47.644 
826 10 1 34.784 12.706  4.110 
827 10 1 32.785 14.064  4.316 
828 10 1 30.639 15.352  3.582 
829 10 1 29.046 14.270 47.328 
830 10 1 26.721 14.418  3.168 
831 11 1 22.329  9.248  3.528 
832 11 1 24.873  9.052  4.139 
833 11 1 27.207  8.606  5.034 
834 11 1 29.353  9.959  5.045 
835 11 1 30.576 11.316  7.005 
836 11 1 31.721 12.488  9.059 
837 11 1 34.203 12.966  9.177 
838 11 1 36.700 13.713  9.501 
839 11 1 39.244 14.212  9.840 
840 11 1 40.412 14.807 12.048 
841 11 1 42.720 15.769 12.682 
842 11 1 43.713 15.916 15.110 
843 11 1 44.864 13.924 16.357 
844 11 1 47.242 13.323 17.026 
845 11 1 48.151 13.288 19.364 
846 11 1 48.834 11.518 21.156 
847 11 1 49.099  9.798 23.000 
848 11 1 49.360  7.814 24.757 
849 11 1 51.351  6.121 24.787 
850 11 1 53.177 42.315 24.186 
851 11 1 54.623 40.774 25.630 
852 11 1 56.210 39.346 27.065 
853 11 1 57.422 37.087 26.404 
854 11 1 58.431 34.708 26.174 
855 11 1 59.643 32.441 25.856 
856 11 1 60.995 30.341 25.506 
857 11 1 -9.687 28.169 25.574 
858 11 1 -8.570 27.763 27.681 
859 11 1 -8.151 27.469 30.155 
860 11 1 -9.552 28.461 32.095 
861 11 1 -11.555 27.250 33.084 
862 11 1 58.461 28.126 34.130 
863 11 1 56.260 29.090 35.026 
864 11 1 54.689 27.847 36.827 
865 11 1 52.314 28.250 36.807 
866 11 1 49.983 28.293 35.702 
867 11 1 47.842 28.410 34.316 
868 11 1 45.679 28.046 32.906 
869 11 1 43.729 27.784 31.241 
870 11 1 42.268 27.558 29.064 
871 11 1 42.286 25.479 27.399 
872 11 1 41.042 23.219 27.591 
873 11 1 40.404 20.771 27.778 
874 11 1 40.167 18.562 28.658 
875 11 1 39.802 17.066 30.527 
876 11 1 38.360 16.022 32.473 
877 11 1 36.942 15.096 34.438 
878 11 1 35.437 14.191 36.214 
879 11 1 34.237 12.731 37.805 
880 11 1 33.719 10.727 39.120 
881 11 1 33.348  8.713 40.823 
882 11 1 32.823  6.974 42.564 
883 11 1 33.848 42.384 42.733 
884 11 1 35.553 40.691 42.654 
885 11 1 37.234 40.101 41.238 
886 11 1 38.046 39.754 38.709 
887 11 1 39.094 41.496 37.505 
888 11 1 40.924 43.292 37.732 
889 11 1 41.730  7.109 39.078 
890 11 1 42.042  8.996 40.266 
891 11 1 42.444 11.572 40.342 
892 11 1 43.547 13.035 38.792 
893 11 1 44.794 11.814 36.943 
894 11 1 45.560 10.447 34.733 
895 11 1 43.879  9.617 33.072 
896 11 1 42.104  8.839 31.464 
897 11 1 40.176  7.780 30.944 
898 11 1 38.123  6.617 31.975 
899 11 1 35.979 43.362 32.858 
900 11 1 33.819 42.249 33.596 
901 11 1 31.483 41.352 34.015 
902 11 1 29.309 40.263 34.736 
903 11 1 27.463 38.812 35.883 
904 11 1 25.591 37.390 36.846 
905 11 1 23.642 36.162 38.041 
906 11 1 23.328 35.859 40.690 
907 11 1 23.402 34.162 42.478 
908 11 1 24.296 31.988 43.395 
909 12 1 14.618 16.272  6.404 
910 12 1 14.141 18.622  5.698 
911 12 1 13.928 20.982  5.442 
912 12 1 11.724 22.033  6.242 
913 12 1  9.343 22.675  6.768 
914 12 1  6.840 23.061  6.895 
915 12 1  4.590 24.274  6.957 
916 12 1  2.713 25.361  6.080 
917 12 1  0.550 25.721  4.641 
918 12 1 -1.740 26.313  3.543 
919 12 1 -3.287 24.829  1.908 
920 12 1 -5.893 24.567  2.256 
921 12 1 -8.435 24.680  2.707 
922 12 1 -10.888 24.485  3.220 
923 12 1 58.728 24.172  3.733 
924 12 1 56.261 23.658  4.344 
925 12 1 53.791 23.429  4.991 
926 12 1 51.440 23.308  6.051 
927 12 1 49.041 23.543  6.914 
928 12 1 47.319 24.571  8.191 
929 12 1 46.239 26.417  9.679 
930 12 1 45.013 28.114 11.253 
931 12 1 43.094 29.420 11.848 
932 12 1 43.255 31.759 11.352 
933 12 1 43.947 34.236 11.568 
934 12 1 44.817 36.680 11.563 
935 12 1 46.839 37.101 12.489 
936 12 1 49.442 36.815 12.238 
937 12 1 51.176 38.215 10.910 
938 12 1 53.490 37.377 10.119 
939 12 1 55.519 38.803  9.462 
940 12 1 57.826 39.976  8.900 
941 12 1 59.950 40.921  7.804 
942 12 1 -10.071 41.874  6.854 
943 12 1 -7.700 42.553  6.034 
944 12 1 -5.449  5.555  5.223 
945 12 1 -3.394  6.967  4.291 
946 12 1 -1.842  8.611  3.048 
947 12 1 -0.310 10.235  1.728 
948 12 1  1.254 11.753 45.204 
949 12 1  2.360 13.116 43.429 
950 12 1  3.371 14.478 41.508 
951 12 1  4.597 15.968 39.873 
952 12 1  5.544 17.489 38.065 
953 12 1  6.351 19.187 36.339 
954 12 1  8.765 19.707 35.645 
955 12 1 11.100 19.397 35.492 
956 12 1 13.451 18.471 36.171 
957 12 1 15.765 17.794 36.828 
958 12 1 17.399 15.816 36.638 
959 12 1 19.267 13.994 36.795 
960 12 1 19.690 11.996 38.565 
961 12 1 19.585 10.093 40.348 
962 12 1 21.012  9.520 42.490 
963 12 1 22.315  7.365 43.074 
964 12 1 23.386 43.019 43.930 
965 12 1 24.996 42.831 45.937 
966 12 1 26.342 42.610  3.209 
967 12 1 28.086 42.428  4.851 
968 12 1 30.340 43.107  5.744 
969 12 1 32.191  6.545  7.118 
970 12 1 34.272  7.722  8.075 
971 12 1 36.246  9.122  9.109 
972 12 1 38.264 10.224  8.848 
973 12 1 40.448 10.693  7.541 
974 12 1 42.681 11.329  6.339 
975 12 1 45.045 11.877  5.279 
976 12 1 47.245 12.296  4.039 
977 12 1 49.299 12.605  2.590 
978 12 1 51.552 13.406 46.961 
979 12 1 53.548 13.989  3.642 
980 12 1 55.591 14.391  5.092 
981 12 1 57.716 14.502  6.453 
982 12 1 60.055 14.726  7.568 
983 12 1 -9.762 14.915  8.865 
984 12 1 -7.782 15.156 10.547 
985 12 1 -5.592 15.606 11.967 
986 12 1 -3.599 15.559 13.669 