LAMMPS data file generated by aa2cg.

2000 atoms
1 atom types
1975 bonds
1 bond types
1950 angles
1 angle types
1925 dihedrals
1 dihedral types

 0.000 48.990 xlo xhi
 0.000 66.325 ylo yhi
 0.000 37.851 zlo zhi

Masses

1 24.022

Atoms # molecular

1 1 1 32.009 32.814 17.242 
2 1 1 42.840  4.036 11.359 
3 2 1 41.012 43.031  8.323 
4 2 1 21.588 57.587 38.835 
5 3 1 11.048 38.281  9.239 
6 3 1 27.675  2.669 20.395 
7 4 1 41.072 50.134 12.837 
8 4 1 46.037 47.628 33.214 
9 5 1 29.157 55.250 18.759 
10 5 1 38.896 31.795 32.448 
11 6 1 14.040 11.245 25.291 
12 6 1  8.945 45.841 13.108 
13 7 1 47.362  6.993 40.931 
14 7 1 37.218 15.481 26.770 
15 8 1 29.361 53.967 31.157 
16 8 1  9.597 54.519 16.550 
17 9 1  1.061 48.021 26.720 
18 9 1 34.426 -0.070 34.533 
19 10 1  7.141 33.404 28.324 
20 10 1 33.480  0.332 21.800 
21 11 1 37.886 -2.922 18.730 
22 11 1  2.174 11.050 12.649 
23 12 1 34.958 14.508  9.755 
24 12 1 15.137 30.992 22.644 
25 13 1 43.246 16.243 16.604 
26 13 1  9.912 -4.926 25.522 
27 14 1 29.510 30.083 16.069 
28 14 1 16.402 43.221 12.230 
29 15 1  5.128  9.090 37.550 
30 15 1  1.681 13.995 32.367 
31 16 1 40.560 21.888 10.671 
32 16 1  9.220 38.653 36.766 
33 17 1 16.095 27.774 34.743 
34 17 1  6.567 12.474 22.292 
35 18 1 13.856 25.608 12.295 
36 18 1  1.288 27.785 11.893 
37 19 1 27.173  2.190  8.351 
38 19 1 41.592 35.200 22.051 
39 20 1  3.652 51.739 31.517 
40 20 1 34.756 51.582 30.423 
41 21 1 28.592 34.666 31.199 
42 21 1 31.843 44.882 15.486 
43 22 1 13.431 -5.517 38.077 
44 22 1 19.050  5.615 39.734 
45 23 1 28.939 12.030 23.497 
46 23 1  2.738 48.098 36.967 
47 24 1 36.243 17.034 19.267 
48 24 1 12.375 49.154 30.098 
49 25 1 21.149 37.959 31.308 
50 25 1 32.212 53.783 39.596 
51 1 1 33.154 34.145 15.358 
52 1 1 34.128 32.945 13.195 
53 1 1 35.100 31.595 11.121 
54 1 1 37.696 31.345 10.706 
55 1 1 40.226 31.349 10.390 
56 1 1 41.722 31.129  8.252 
57 1 1 43.124 31.073  6.074 
58 1 1 44.905 32.811  5.328 
59 1 1 46.433 34.650 43.404 
60 1 1 48.513 35.824  5.469 
61 1 1  1.863 36.761 42.760 
62 1 1  3.700 37.856 43.594 
63 1 1  5.436 39.146  7.198 
64 1 1  7.158 40.520  8.465 
65 1 1  8.846 42.082  9.000 
66 1 1 10.434 44.162  8.904 
67 1 1 11.801 45.853  9.686 
68 1 1 12.944 47.036 11.635 
69 1 1 14.271 48.270 13.428 
70 1 1 15.165 49.990 15.171 
71 1 1 15.477 52.122 16.669 
72 1 1 16.198 52.938 18.924 
73 1 1 16.697 54.123 21.135 
74 1 1 17.177 55.659 23.266 
75 1 1 17.761 57.182 25.288 
76 1 1 18.215 -8.797 27.564 
77 1 1 18.545 56.891 30.027 
78 1 1 20.000 55.194 30.475 
79 1 1 22.099 53.913 30.019 
80 1 1 24.251 52.642 29.385 
81 1 1 26.374 51.388 28.898 
82 1 1 27.679 49.502 29.133 
83 1 1 28.188 47.061 29.708 
84 1 1 29.040 44.737 30.410 
85 1 1 27.673 42.619 30.387 
86 1 1 28.407 40.295 29.751 
87 1 1 29.538 38.279 28.719 
88 1 1 28.484 36.366 27.386 
89 1 1 27.697 34.147 26.438 
90 1 1 26.825 31.835 25.606 
91 1 1 26.463 29.272 25.499 
92 1 1 26.331 26.743 25.366 
93 1 1 26.472 24.087 25.070 
94 1 1 26.393 21.522 24.739 
95 1 1 28.099 19.928 23.680 
96 1 1 29.700 17.999 22.875 
97 1 1 31.057 16.236 21.590 
98 1 1 32.318 14.497 20.093 
99 1 1 33.691 12.529 19.174 
100 1 1 34.880 10.612 18.017 
101 1 1 36.017  8.983 16.468 
102 1 1 37.310  7.431 14.943 
103 1 1 38.493  5.700 13.535 
104 1 1 38.070  3.469 14.285 
105 1 1 39.920  1.732 14.687 
106 1 1 41.983  0.284 15.000 
107 1 1 43.696  0.704 16.751 
108 1 1 45.459  1.086 18.583 
109 1 1 47.355  1.204 20.380 
110 1 1 47.763  0.182 22.783 
111 1 1  0.455 -1.330 23.963 
112 1 1  1.627 -3.011 25.392 
113 1 1  3.212 -4.421 26.802 
114 1 1  5.026 -5.770 27.982 
115 1 1  7.169 -4.862 29.286 
116 1 1  6.549 -4.083 31.336 
117 1 1  6.162 -1.466 31.258 
118 1 1  4.100 -0.306 30.247 
119 1 1  2.114  0.996 29.186 
120 1 1 -0.199  2.066 28.534 
121 1 1 46.319  2.652 28.322 
122 1 1 44.628  3.539 27.072 
123 1 1 43.826  5.225 25.314 
124 1 1 43.420  5.059 22.817 
125 1 1 42.960  5.003 20.213 
126 1 1 42.405  5.050 17.741 
127 1 1 41.907  5.011 15.234 
128 1 1 43.656  4.865 13.362 
129 2 1 40.716 42.916  5.874 
130 2 1 39.139 42.410 41.982 
131 2 1 37.520 40.769 43.080 
132 2 1 36.609 39.397  7.029 
133 2 1 36.451 40.616  9.309 
134 2 1 36.324 42.017 11.517 
135 2 1 36.266 43.148 13.728 
136 2 1 36.112 43.498 16.063 
137 2 1 35.135 42.984 18.433 
138 2 1 34.074 42.695 20.784 
139 2 1 33.306 42.265 23.198 
140 2 1 32.499 42.063 25.534 
141 2 1 32.682 41.487 27.765 
142 2 1 33.982 40.785 29.893 
143 2 1 35.001 38.535 30.527 
144 2 1 35.168 36.173 31.024 
145 2 1 34.180 33.760 30.855 
146 2 1 33.608 31.301 30.661 
147 2 1 31.255 30.442 30.125 
148 2 1 28.922 30.068 30.151 
149 2 1 26.515 30.509 30.678 
150 2 1 24.280 30.901 30.192 
151 2 1 24.033 33.209 29.103 
152 2 1 23.885 35.571 28.135 
153 2 1 23.549 37.961 27.338 
154 2 1 23.476 40.390 26.462 
155 2 1 24.275 42.553 26.410 
156 2 1 24.604 44.551 27.426 
157 2 1 23.677 46.613 28.572 
158 2 1 22.262 48.717 29.168 
159 2 1 19.718 49.122 28.711 
160 2 1 17.945 50.559 30.034 
161 2 1 16.141 51.950 31.381 
162 2 1 14.264 53.396 32.326 
163 2 1 13.100 55.285 32.246 
164 2 1 12.182 55.911 29.903 
165 2 1 13.322 55.885 27.782 
166 2 1 14.107 54.387 26.190 
167 2 1 14.347 52.232 24.971 
168 2 1 14.924 50.014 23.640 
169 2 1 15.185 47.574 24.345 
170 2 1 15.333 45.462 22.727 
171 2 1 14.009 43.336 22.985 
172 2 1 12.949 41.122 23.491 
173 2 1 12.122 38.938 24.384 
174 2 1 10.575 37.649 25.425 
175 2 1 10.391 37.535 27.715 
176 2 1 11.214 37.653 29.838 
177 2 1 12.713 39.033 31.488 
178 2 1 14.122 40.680 33.074 
179 2 1 15.591 42.186 34.596 
180 2 1 16.862 43.683 36.269 
181 2 1 17.334 45.568 37.975 
182 2 1 17.701 47.315 39.857 
183 2 1 17.300 48.845 41.942 
184 2 1 15.214 49.582 43.234 
185 2 1 13.543 49.915  7.252 
186 2 1 11.727 50.424  9.011 
187 2 1 10.160 50.668 11.092 
188 2 1  8.295 51.538 12.436 
189 2 1  6.279 52.570 13.719 
190 2 1  4.185 53.392 13.788 
191 2 1  2.028 54.533 13.031 
192 2 1  0.266 56.257 12.406 
193 2 1 47.692 -8.046 12.293 
194 2 1 45.886 -6.413 13.340 
195 2 1 43.967 -4.744 14.105 
196 2 1 41.750 -4.055 14.282 
197 2 1 39.508 -3.545 13.905 
198 2 1 37.766 -1.951 12.757 
199 2 1 35.826 -0.562 11.868 
200 2 1 33.824  0.073 10.784 
201 2 1 31.888 -0.436  9.072 
202 2 1 30.023 -1.657  7.754 
203 2 1 28.310 -3.101  6.425 
204 2 1 26.463 -4.501  5.247 
205 2 1 24.774 -5.929 41.845 
206 2 1 23.090 -7.348 40.405 
207 3 1 13.115 39.073 10.148 
208 3 1 15.584 39.279 10.089 
209 3 1 17.602 39.796  8.980 
210 3 1 19.365 40.742  7.442 
211 3 1 18.901 40.953 42.905 
212 3 1 17.633 40.755 41.050 
213 3 1 16.183 39.009 39.763 
214 3 1 14.819 37.412 38.350 
215 3 1 13.343 36.032 36.732 
216 3 1 12.709 34.768 34.930 
217 3 1 14.095 32.560 34.845 
218 3 1 16.204 32.501 33.872 
219 3 1 18.669 33.318 33.720 
220 3 1 21.009 34.337 33.369 
221 3 1 23.262 33.464 34.396 
222 3 1 24.557 32.011 35.804 
223 3 1 25.268 30.310 37.786 
224 3 1 24.064 28.438 39.071 
225 3 1 23.048 26.253 39.717 
226 3 1 22.723 23.885 39.759 
227 3 1 23.201 21.516 38.772 
228 3 1 23.817 19.330 37.647 
229 3 1 24.424 17.092 36.501 
230 3 1 26.442 15.618 36.877 
231 3 1 28.316 14.367 37.731 
232 3 1 30.305 13.748 39.281 
233 3 1 32.387 12.993 40.388 
234 3 1 34.605 12.051 41.190 
235 3 1 35.931 10.271 41.813 
236 3 1 34.585  8.744 43.500 
237 3 1 32.328  7.605 43.450 
238 3 1 29.897  6.650 43.386 
239 3 1 27.526  6.660 42.952 
240 3 1 26.538  9.056 42.795 
241 3 1 25.351 11.254 42.360 
242 3 1 24.104 13.444 42.026 
243 3 1 22.587 15.353 41.634 
244 3 1 20.661 16.892 41.140 
245 3 1 18.163 16.397 41.423 
246 3 1 16.278 17.885 42.417 
247 3 1 14.327 19.372 43.234 
248 3 1 12.852 20.432  6.904 
249 3 1 10.794 21.184  7.920 
250 3 1  8.566 22.347  8.153 
251 3 1  6.296 23.511  8.728 
252 3 1  4.913 24.427 10.397 
253 3 1  5.882 23.623 12.686 
254 3 1  4.875 21.830 14.254 
255 3 1  4.410 21.875 16.859 
256 3 1  3.580 22.208 19.055 
257 3 1  2.584 23.601 20.598 
258 3 1  2.783 25.785 21.911 
259 3 1  4.494 27.612 21.633 
260 3 1  6.530 28.839 21.882 
261 3 1  8.429 30.090 22.642 
262 3 1 10.246 31.842 22.325 
263 3 1 11.754 33.706 21.589 
264 3 1 13.141 35.630 20.689 
265 3 1 14.408 37.621 19.848 
266 3 1 15.448 39.807 19.107 
267 3 1 16.280 42.122 18.548 
268 3 1 17.890 42.954 16.745 
269 3 1 19.797 43.281 15.334 
270 3 1 22.159 43.576 14.326 
271 3 1 24.452 43.940 13.433 
272 3 1 26.694 44.795 12.442 
273 3 1 27.863 46.012 10.885 
274 3 1 27.673 47.279  8.676 
275 3 1 26.989 49.788  8.326 
276 3 1 26.602 51.953  8.737 
277 3 1 25.619 53.831 10.029 
278 3 1 24.295 55.630 11.233 
279 3 1 24.183 57.494 12.452 
280 3 1 25.421 -7.092 14.017 
281 3 1 26.563 -5.214 15.380 
282 3 1 27.486 -3.322 16.815 
283 3 1 28.525 -1.425 18.259 
284 3 1 28.538  0.537 19.441 
285 4 1 38.795 49.395 13.824 
286 4 1 36.410 48.483 14.459 
287 4 1 35.129 48.195 16.243 
288 4 1 34.467 48.475 18.727 
289 4 1 35.910 48.441 20.984 
290 4 1 36.929 48.384 23.395 
291 4 1 37.767 48.303 25.802 
292 4 1 38.872 48.448 28.069 
293 4 1 39.816 48.735 30.543 
294 4 1 38.708 50.154 32.450 
295 4 1 37.207 50.492 34.145 
296 4 1 35.376 49.757 35.859 
297 4 1 33.774 49.079 37.663 
298 4 1 31.811 49.047 38.792 
299 4 1 29.312 48.947 39.245 
300 4 1 27.239 49.554 37.864 
301 4 1 24.766 49.210 38.521 
302 4 1 23.055 47.795 39.533 
303 4 1 22.301 46.007 41.262 
304 4 1 21.938 45.356 43.566 
305 4 1 21.735 45.700  8.281 
306 4 1 23.193 47.475  9.648 
307 4 1 23.177 48.223 12.054 
308 4 1 25.172 49.354 13.354 
309 4 1 25.532 51.925 13.657 
310 4 1 24.893 53.624 15.506 
311 4 1 24.302 55.448 17.230 
312 4 1 23.512 57.441 18.411 
313 4 1 23.049 -6.488 19.254 
314 4 1 23.021 -3.869 19.730 
315 4 1 23.066 -1.914 18.021 
316 4 1 23.352  0.071 16.437 
317 4 1 22.620  2.129 17.559 
318 4 1 21.690  4.114 18.452 
319 4 1 20.398  6.331 18.493 
320 4 1 20.947  8.726 17.707 
321 4 1 19.316 10.685 18.254 
322 4 1 17.748 12.632 19.146 
323 4 1 15.837 14.053 20.016 
324 4 1 13.414 14.777 20.557 
325 4 1 10.936 15.361 20.926 
326 4 1  8.425 16.160 21.202 
327 4 1  6.067 17.104 21.357 
328 4 1  3.966 17.726 22.322 
329 4 1  1.901 18.256 23.456 
330 4 1  0.624 19.976 24.163 
331 4 1  0.174 21.290 26.114 
332 4 1 47.332 21.293 27.412 
333 4 1 45.282 22.161 27.993 
334 4 1 44.610 24.386 26.757 
335 4 1 44.041 26.537 25.376 
336 4 1 43.232 28.773 26.230 
337 4 1 42.157 30.961 26.699 
338 4 1 40.766 33.062 27.040 
339 4 1 39.489 34.662 28.221 
340 4 1 39.340 36.905 28.558 
341 4 1 39.009 39.150 27.342 
342 4 1 38.247 41.365 27.052 
343 4 1 36.783 43.394 27.688 
344 4 1 35.195 45.374 27.983 
345 4 1 33.291 46.930 28.270 
346 4 1 32.204 49.110 28.354 
347 4 1 31.792 50.692 26.819 
348 4 1 31.305 51.228 24.244 
349 4 1 33.163 51.540 22.456 
350 4 1 32.977 52.553 20.092 
351 4 1 33.280 53.749 17.708 
352 4 1 33.368 54.885 15.513 
353 4 1 34.586 54.272 13.338 
354 4 1 35.857 53.591 11.211 
355 4 1 36.822 52.601  9.111 
356 4 1 38.345 52.096  7.088 
357 4 1 39.769 51.490  5.036 
358 4 1 41.104 51.375 40.680 
359 4 1 42.411 50.787 38.521 
360 4 1 41.632 51.165 36.088 
361 4 1 43.204 50.705 34.102 
362 4 1 45.288 50.137 33.062 
363 5 1 29.904 56.080 20.949 
364 5 1 31.209 56.789 23.094 
365 5 1 32.911 57.368 25.015 
366 5 1 32.688 56.774 27.536 
367 5 1 33.001 56.786 30.068 
368 5 1 35.145 56.079 31.348 
369 5 1 37.272 55.324 32.537 
370 5 1 39.609 55.280 32.919 
371 5 1 41.858 55.453 33.485 
372 5 1 43.878 55.100 34.866 
373 5 1 45.840 54.372 36.343 
374 5 1 46.212 54.253 38.943 
375 5 1 45.917 54.373 41.289 
376 5 1 44.999 52.609 42.949 
377 5 1 44.120 50.961  6.808 
378 5 1 42.714 49.027  7.420 
379 5 1 42.843 47.140  5.569 
380 5 1 41.364 46.713 41.297 
381 5 1 39.918 46.503 39.083 
382 5 1 39.134 46.595 36.676 
383 5 1 38.677 46.095 34.175 
384 5 1 36.581 45.186 32.886 
385 5 1 34.494 44.184 32.607 
386 5 1 32.435 42.869 33.423 
387 5 1 30.378 41.830 34.515 
388 5 1 28.295 41.162 35.773 
389 5 1 28.452 40.066 38.189 
390 5 1 27.938 39.447 40.604 
391 5 1 25.490 39.882 41.398 
392 5 1 24.069 38.575 43.031 
393 5 1 22.279 37.123  6.478 
394 5 1 20.365 35.756  7.648 
395 5 1 18.831 34.047  8.745 
396 5 1 16.789 34.417 10.113 
397 5 1 16.612 34.525 12.664 
398 5 1 16.267 34.761 15.195 
399 5 1 16.722 34.198 17.555 
400 5 1 17.608 34.082 19.735 
401 5 1 18.769 34.923 21.946 
402 5 1 18.968 37.339 22.985 
403 5 1 19.270 39.828 23.813 
404 5 1 19.285 41.997 25.089 
405 5 1 18.930 44.291 25.573 
406 5 1 20.455 45.723 24.516 
407 5 1 22.669 46.893 24.109 
408 5 1 24.891 48.183 23.349 
409 5 1 25.991 50.385 24.275 
410 5 1 26.800 52.649 25.130 
411 5 1 27.503 54.804 26.384 
412 5 1 27.657 57.112 27.092 
413 5 1 27.797 -6.680 26.909 
414 5 1 27.049 -4.431 27.209 
415 5 1 25.511 -2.521 27.732 
416 5 1 24.048 -0.331 27.791 
417 5 1 21.906  0.203 29.179 
418 5 1 21.225  2.504 29.984 
419 5 1 19.178  2.825 31.591 
420 5 1 18.031  4.755 33.049 
421 5 1 17.064  6.181 34.966 
422 5 1 15.388  8.151 35.167 
423 5 1 13.905 10.169 35.486 
424 5 1 12.220 12.210 35.778 
425 5 1 10.829 14.299 36.350 
426 5 1 10.593 16.614 36.263 
427 5 1 10.771 18.963 35.099 
428 5 1 11.141 21.341 34.014 
429 5 1 13.447 22.322 33.131 
430 5 1 15.690 23.072 32.290 
431 5 1 18.053 23.462 31.549 
432 5 1 20.384 24.030 30.610 
433 5 1 22.523 24.882 29.361 
434 5 1 24.837 25.279 29.206 
435 5 1 27.271 25.183 29.797 
436 5 1 29.807 25.173 30.144 
437 5 1 31.862 25.727 31.162 
438 5 1 33.527 27.062 32.415 
439 5 1 35.280 28.621 33.467 
440 5 1 37.037 30.282 33.408 
441 6 1 12.964 13.485 24.616 
442 6 1 11.291 14.987 25.968 
443 6 1 10.542 17.419 25.499 
444 6 1  9.621 19.799 24.984 
445 6 1  8.712 22.126 24.347 
446 6 1  8.092 23.826 22.901 
447 6 1  7.769 24.952 20.658 
448 6 1  8.247 26.198 18.434 
449 6 1  6.357 26.265 17.181 
450 6 1  3.869 26.696 16.638 
451 6 1  1.359 26.695 16.360 
452 6 1 -0.258 28.759 16.632 
453 6 1 47.230 30.923 16.828 
454 6 1 46.721 32.259 18.943 
455 6 1 46.391 33.603 20.985 
456 6 1 46.831 35.076 22.801 
457 6 1 47.736 37.157 23.988 
458 6 1  1.153 38.109 23.947 
459 6 1  3.383 39.484 23.841 
460 6 1  5.491 40.802 23.812 
461 6 1  7.854 41.837 23.884 
462 6 1  9.024 42.510 26.069 
463 6 1  9.557 42.166 28.303 
464 6 1  8.885 41.106 30.452 
465 6 1  7.752 40.055 32.513 
466 6 1  7.515 37.447 33.168 
467 6 1  8.190 35.247 33.075 
468 6 1  9.418 33.107 32.148 
469 6 1  9.810 30.795 32.230 
470 6 1  7.896 29.098 32.016 
471 6 1  6.156 27.138 31.830 
472 6 1  4.098 25.550 31.647 
473 6 1  1.796 24.239 31.283 
474 6 1  0.282 24.762 33.006 
475 6 1 48.541 26.452 34.914 
476 6 1 49.282 28.629 34.437 
477 6 1  2.215 30.107 33.469 
478 6 1  3.704 30.728 31.592 
479 6 1  4.137 31.015 28.995 
480 6 1  4.672 29.395 26.967 
481 6 1  2.922 28.122 25.910 
482 6 1  1.004 26.354 26.010 
483 6 1 -0.173 26.261 28.011 
484 6 1 47.609 27.420 29.869 
485 6 1 45.220 28.201 30.055 
486 6 1 44.194 30.539 30.730 
487 6 1 44.355 30.844 33.109 
488 6 1 46.262 32.475 33.560 
489 6 1 48.137 34.204 33.962 
490 6 1  1.134 35.756 34.062 
491 6 1  2.563 37.418 33.450 
492 6 1  3.117 39.867 33.010 
493 6 1  4.021 42.019 33.130 
494 6 1  5.104 44.159 34.151 
495 6 1  5.536 44.425 36.664 
496 6 1  3.668 44.208 38.469 
497 6 1  1.697 44.145 40.179 
498 6 1 48.769 44.525 41.913 
499 6 1 47.121 44.824 43.916 
500 6 1 45.569 44.686  8.097 
501 6 1 45.788 44.876 10.615 
502 6 1 45.698 44.049 12.862 
503 6 1 45.953 42.363 14.982 
504 6 1 47.081 40.440 14.483 
505 6 1 49.404 40.122 15.536 
506 6 1  2.557 40.733 16.015 
507 6 1  3.933 41.735 14.123 
508 6 1  2.655 42.788 12.348 
509 6 1  1.370 43.014 10.099 
510 6 1  1.052 41.551  8.000 
511 6 1 48.213 39.820  7.974 
512 6 1  0.308 38.422  9.748 
513 6 1  1.919 37.746 11.425 
514 6 1  3.773 37.261 12.773 
515 6 1  5.536 37.103 14.650 
516 6 1  7.147 38.950 15.259 
517 6 1  8.323 41.045 15.116 
518 6 1  8.783 43.401 14.075 
519 7 1 45.611  7.145 42.812 
520 7 1 44.236  7.551  7.056 
521 7 1 42.904  8.289  9.068 
522 7 1 41.094  9.239 10.463 
523 7 1 38.539  9.675 10.454 
524 7 1 36.024  9.583 10.529 
525 7 1 33.527  9.473 10.677 
526 7 1 32.013 10.883  9.137 
527 7 1 30.609 12.330  7.510 
528 7 1 29.273 14.146  6.718 
529 7 1 28.348 16.522  6.878 
530 7 1 26.440 17.614  5.933 
531 7 1 27.488 19.303 42.013 
532 7 1 27.724 21.364 40.564 
533 7 1 27.633 23.635 39.389 
534 7 1 28.564 25.774 39.105 
535 7 1 30.055 27.804 39.671 
536 7 1 31.341 29.972 40.498 
537 7 1 33.739 30.741 39.957 
538 7 1 36.339 31.420 39.701 
539 7 1 38.806 31.940 39.380 
540 7 1 40.785 31.649 38.393 
541 7 1 42.678 30.844 37.305 
542 7 1 44.804 30.228 38.700 
543 7 1 46.890 29.651 40.149 
544 7 1 46.820 27.412 40.525 
545 7 1 44.847 25.762 40.757 
546 7 1 42.571 26.627 41.497 
547 7 1 40.146 27.349 41.952 
548 7 1 37.891 28.004 42.836 
549 7 1 35.662 26.840 42.798 
550 7 1 34.051 25.551 41.832 
551 7 1 33.093 23.357 40.967 
552 7 1 32.344 21.212 39.757 
553 7 1 32.214 19.276 38.111 
554 7 1 32.263 17.047 36.804 
555 7 1 34.325 16.240 35.334 
556 7 1 36.012 14.473 35.956 
557 7 1 35.767 11.896 35.630 
558 7 1 36.986  9.879 36.820 
559 7 1 39.193  8.588 35.905 
560 7 1 41.048  7.285 34.815 
561 7 1 42.537  5.463 35.925 
562 7 1 44.464  4.028 36.837 
563 7 1 45.544  2.872 38.547 
564 7 1 45.808  2.463 41.039 
565 7 1 46.120  2.083 43.603 
566 7 1 45.154  0.464  7.492 
567 7 1 44.354 -1.097  9.360 
568 7 1 42.173 -1.216 10.001 
569 7 1 39.851 -1.352  8.844 
570 7 1 38.159 -0.200  7.780 
571 7 1 37.100  1.174  5.845 
572 7 1 35.442  2.400 42.537 
573 7 1 33.053  2.882 41.791 
574 7 1 30.641  3.140 40.893 
575 7 1 28.467  1.759 41.146 
576 7 1 26.390  0.211 40.643 
577 7 1 24.477 -1.373 39.895 
578 7 1 22.259 -2.755 39.508 
579 7 1 20.411 -2.695 37.697 
580 7 1 17.967 -2.302 38.335 
581 7 1 15.610 -1.852 39.167 
582 7 1 13.350 -1.374 40.291 
583 7 1 11.156 -0.207 39.312 
584 7 1  9.560  1.016 37.805 
585 7 1  8.892  1.872 35.501 
586 7 1  8.292  2.744 33.241 
587 7 1  7.969  3.611 30.801 
588 7 1  6.555  4.415 29.254 
589 7 1  4.234  4.865 28.445 
590 7 1  1.941  5.440 27.262 
591 7 1 -0.125  6.202 25.866 
592 7 1 46.901  7.637 26.762 
593 7 1 45.008  9.374 27.279 
594 7 1 43.189 11.074 27.606 
595 7 1 41.367 12.722 27.609 
596 7 1 39.244 14.084 27.248 
597 8 1 30.452 52.163 31.912 
598 8 1 30.296 49.860 33.105 
599 8 1 30.260 47.546 34.089 
600 8 1 28.392 46.059 34.911 
601 8 1 26.578 44.675 36.145 
602 8 1 24.741 43.107 37.077 
603 8 1 23.086 41.296 37.548 
604 8 1 21.506 39.676 36.850 
605 8 1 19.566 38.890 35.720 
606 8 1 17.555 38.314 34.586 
607 8 1 16.559 36.762 32.629 
608 8 1 15.306 35.270 30.863 
609 8 1 14.082 33.650 29.281 
610 8 1 12.852 32.136 27.628 
611 8 1 11.359 30.592 26.788 
612 8 1  9.637 28.676 27.101 
613 8 1  7.938 26.775 27.447 
614 8 1  6.090 25.025 27.703 
615 8 1  4.633 22.960 27.506 
616 8 1  4.964 20.459 26.868 
617 8 1  5.300 17.975 26.658 
618 8 1  5.712 15.421 27.073 
619 8 1  6.731 13.212 27.226 
620 8 1  7.774 12.502 29.419 
621 8 1  9.766 13.361 30.788 
622 8 1 12.362 13.296 30.828 
623 8 1 14.806 13.660 30.808 
624 8 1 17.322 13.815 30.761 
625 8 1 19.709 14.538 30.893 
626 8 1 21.970 15.707 31.480 
627 8 1 24.443 16.357 31.927 
628 8 1 27.077 16.598 32.254 
629 8 1 29.444 17.439 32.797 
630 8 1 31.651 18.276 32.563 
631 8 1 34.098 18.206 31.701 
632 8 1 36.556 17.783 31.324 
633 8 1 38.918 18.032 30.972 
634 8 1 39.403 20.487 30.299 
635 8 1 40.203 22.727 29.327 
636 8 1 41.039 24.927 28.997 
637 8 1 40.264 27.038 29.334 
638 8 1 38.484 28.822 28.925 
639 8 1 37.559 30.552 27.799 
640 8 1 36.238 30.406 25.585 
641 8 1 37.637 30.097 23.680 
642 8 1 39.797 29.633 22.542 
643 8 1 41.837 29.241 20.904 
644 8 1 43.127 28.488 18.924 
645 8 1 44.098 26.899 17.350 
646 8 1 45.961 25.021 16.891 
647 8 1 47.513 23.019 16.453 
648 8 1 47.956 20.696 17.577 
649 8 1 48.644 18.375 18.474 
650 8 1 49.366 16.133 19.496 
651 8 1  1.131 13.997 20.777 
652 8 1  1.741 11.833 22.070 
653 8 1  2.114  9.715 23.550 
654 8 1  4.263  8.320 23.476 
655 8 1  6.339  6.833 23.794 
656 8 1  8.137  5.600 22.754 
657 8 1  9.963  5.280 20.960 
658 8 1 11.997  5.195 19.357 
659 8 1 12.649  3.377 17.660 
660 8 1 13.815  3.891 15.326 
661 8 1 14.735  4.160 12.873 
662 8 1 16.754  2.856 11.815 
663 8 1 18.693  1.390 11.058 
664 8 1 18.908 -0.371  9.120 
665 8 1 18.925 -2.366  7.542 
666 8 1 19.038 -4.022  5.516 
667 8 1 18.793 -6.090 42.459 
668 8 1 18.166 -8.540 42.559 
669 8 1 17.751 55.217 42.778 
670 8 1 17.362 53.582  6.924 
671 8 1 16.268 52.738  8.754 
672 8 1 14.828 52.945 10.932 
673 8 1 13.043 53.487 12.699 
674 8 1 11.463 53.975 14.755 
675 9 1  1.932 47.340 28.947 
676 9 1  1.807 46.793 31.309 
677 9 1  0.592 44.716 32.002 
678 9 1 -0.421 43.636 34.147 
679 9 1 47.264 41.281 34.096 
680 9 1 46.139 38.975 33.931 
681 9 1 45.436 37.458 35.948 
682 9 1 44.534 35.825 37.883 
683 9 1 43.180 35.484 39.676 
684 9 1 41.467 35.636 41.568 
685 9 1 39.928 35.430 43.568 
686 9 1 38.081 33.732  5.841 
687 9 1 36.112 32.270  6.197 
688 9 1 33.925 31.034  6.572 
689 9 1 32.428 29.696  7.767 
690 9 1 31.203 28.563  9.672 
691 9 1 29.611 27.558 11.429 
692 9 1 28.082 26.587 13.247 
693 9 1 26.674 25.914 15.377 
694 9 1 27.719 25.402 17.703 
695 9 1 28.732 25.048 20.075 
696 9 1 30.246 26.434 21.058 
697 9 1 32.308 27.883 21.364 
698 9 1 34.484 27.322 20.673 
699 9 1 36.422 26.579 19.656 
700 9 1 38.693 25.394 19.533 
701 9 1 40.252 24.010 18.434 
702 9 1 41.424 22.697 16.507 
703 9 1 42.751 21.080 14.891 
704 9 1 43.822 19.538 13.244 
705 9 1 44.816 17.856 11.470 
706 9 1 46.519 16.793 10.252 
707 9 1 48.925 16.211  9.745 
708 9 1  2.349 15.590  9.473 
709 9 1  4.154 14.155  9.110 
710 9 1  5.037 11.837  8.441 
711 9 1  6.118  9.598  8.091 
712 9 1  6.938  7.194  7.704 
713 9 1  7.877  4.738  7.035 
714 9 1  6.963  2.481  5.983 
715 9 1  5.808  0.959 42.408 
716 9 1  4.353  0.168 40.562 
717 9 1  3.551 -0.709 38.457 
718 9 1  3.590 -1.335 35.841 
719 9 1  2.139 -0.329 34.304 
720 9 1 -0.332  0.239 33.844 
721 9 1 46.262  0.810 33.237 
722 9 1 44.391  2.136 32.552 
723 9 1 42.498  3.123 31.879 
724 9 1 40.041  3.267 31.204 
725 9 1 37.559  3.174 30.591 
726 9 1 35.278  3.523 30.330 
727 9 1 32.889  3.741 30.353 
728 9 1 30.418  3.181 30.482 
729 9 1 27.958  3.013 31.144 
730 9 1 25.395  2.982 31.706 
731 9 1 24.362  2.262 33.936 
732 9 1 23.372  1.605 36.221 
733 9 1 20.865  1.813 36.724 
734 9 1 18.438  2.431 37.234 
735 9 1 15.982  2.888 37.187 
736 9 1 14.401  3.447 39.116 
737 9 1 12.817  4.226 40.955 
738 9 1 11.631  5.793 42.361 
739 9 1 11.107  8.168  5.531 
740 9 1 10.716 10.356  6.877 
741 9 1 12.599 11.844  6.818 
742 9 1 14.975 12.614  7.091 
743 9 1 17.050 13.179  6.406 
744 9 1 18.533 11.309  5.584 
745 9 1 20.231  9.453 43.077 
746 9 1 21.394  8.959 40.899 
747 9 1 23.279  7.320 40.088 
748 9 1 25.406  5.895 39.474 
749 9 1 26.937  5.867 37.276 
750 9 1 28.853  4.304 36.576 
751 9 1 30.694  2.777 35.673 
752 9 1 32.646  1.343 34.606 
753 10 1  6.115 35.795 28.163 
754 10 1  5.243 38.194 28.188 
755 10 1  4.636 40.749 28.300 
756 10 1  3.464 42.584 27.617 
757 10 1  1.247 43.536 26.519 
758 10 1 48.013 44.192 25.467 
759 10 1 46.198 42.745 24.369 
760 10 1 44.863 41.224 22.807 
761 10 1 43.810 39.767 24.205 
762 10 1 44.009 38.226 26.298 
763 10 1 44.254 36.699 28.354 
764 10 1 43.573 35.857 30.485 
765 10 1 42.097 35.575 32.619 
766 10 1 40.631 35.180 34.722 
767 10 1 38.187 34.700 35.156 
768 10 1 35.830 34.192 35.418 
769 10 1 33.470 33.461 35.969 
770 10 1 31.488 32.315 35.710 
771 10 1 29.909 30.485 34.881 
772 10 1 28.280 28.501 34.681 
773 10 1 26.496 26.669 34.341 
774 10 1 24.465 25.495 34.361 
775 10 1 22.089 25.151 35.145 
776 10 1 19.781 24.562 35.943 
777 10 1 17.661 23.244 36.597 
778 10 1 18.328 21.218 37.350 
779 10 1 19.386 18.924 36.965 
780 10 1 20.298 16.531 36.630 
781 10 1 21.663 14.309 36.580 
782 10 1 23.421 12.399 36.892 
783 10 1 25.426 10.890 37.471 
784 10 1 27.656  9.828 38.137 
785 10 1 29.972  9.063 38.910 
786 10 1 31.728  7.401 37.920 
787 10 1 33.898  6.147 38.750 
788 10 1 36.412  6.437 39.216 
789 10 1 38.263  4.603 39.511 
790 10 1 40.182  2.989 39.948 
791 10 1 41.541  1.597 41.175 
792 10 1 41.633 -0.330 42.529 
793 10 1 41.551 -2.905 43.063 
794 10 1 41.917 -4.788  6.627 
795 10 1 42.605 -6.220  8.705 
796 10 1 43.485 -8.013  9.912 
797 10 1 41.890 56.315 10.122 
798 10 1 40.674 54.960 11.494 
799 10 1 39.695 54.299 13.796 
800 10 1 38.964 53.276 16.006 
801 10 1 38.023 52.508 18.304 
802 10 1 38.973 51.522 20.489 
803 10 1 40.503 50.673 22.356 
804 10 1 42.001 49.350 23.437 
805 10 1 43.890 47.386 23.179 
806 10 1 46.360 47.735 22.433 
807 10 1 48.796 48.225 21.765 
808 10 1  2.031 49.133 20.887 
809 10 1  4.291 50.145 20.054 
810 10 1  6.582 50.788 20.465 
811 10 1  8.699 51.261 21.848 
812 10 1 10.207 52.574 23.049 
813 10 1  9.510 52.884 25.301 
814 10 1  9.291 52.477 27.822 
815 10 1  9.234 51.919 30.353 
816 10 1  8.820 51.526 32.905 
817 10 1  7.362 51.625 34.691 
818 10 1  5.302 52.368 35.987 
819 10 1  3.495 53.369 37.702 
820 10 1  2.033 55.425 37.418 
821 10 1  0.740 57.083 36.311 
822 10 1 -0.226 -8.538 34.399 
823 10 1 47.140 -8.452 32.384 
824 10 1 45.114 -7.916 30.888 
825 10 1 42.931 -7.198 29.737 
826 10 1 41.767 -6.178 28.100 
827 10 1 41.023 -4.805 26.447 
828 10 1 39.197 -3.454 25.180 
829 10 1 37.359 -1.771 24.211 
830 10 1 35.504 -0.414 23.143 
831 11 1 40.364 -3.709 18.803 
832 11 1 42.985 -4.065 18.941 
833 11 1 45.459 -3.984 18.744 
834 11 1 47.579 -4.085 17.757 
835 11 1  0.391 -4.373 15.984 
836 11 1  2.202 -5.189 14.384 
837 11 1  4.192 -6.330 13.983 
838 11 1  5.978 -7.640 13.648 
839 11 1  7.438 -9.101 12.091 
840 11 1  8.958 56.287 10.280 
841 11 1 11.059 56.003  9.203 
842 11 1 13.149 56.724  8.455 
843 11 1 14.739 -7.885  7.456 
844 11 1 14.217 -6.237  5.425 
845 11 1 13.214 -3.951  5.677 
846 11 1 11.465 -2.506  6.248 
847 11 1  9.935 -1.212  7.355 
848 11 1  9.169  0.537  9.121 
849 11 1  8.314  2.317 10.577 
850 11 1  7.477  3.311 12.701 
851 11 1  6.950  3.372 15.160 
852 11 1  8.444  2.347 17.026 
853 11 1  7.844  1.191 19.353 
854 11 1  9.283 -0.142 20.879 
855 11 1 11.294 -1.304 20.681 
856 11 1 12.442 -1.983 18.485 
857 11 1 12.512 -0.563 16.572 
858 11 1 12.111 -0.591 14.050 
859 11 1 12.435 -1.304 11.887 
860 11 1 14.102 -2.540 10.282 
861 11 1 15.729 -4.569 10.530 
862 11 1 18.335 -5.039 10.872 
863 11 1 20.040 -5.900 12.212 
864 11 1 21.052 -6.449 14.541 
865 11 1 19.767 -7.316 16.538 
866 11 1 18.840 -7.733 18.726 
867 11 1 17.224 -6.657 20.130 
868 11 1 15.040 -5.507 20.791 
869 11 1 14.121 -4.369 22.559 
870 11 1 14.978 -2.432 23.637 
871 11 1 13.485 -0.670 24.906 
872 11 1 11.701  0.210 26.271 
873 11 1  9.661  0.219 27.885 
874 11 1  7.710  0.576 26.639 
875 11 1  6.765 -1.319 25.035 
876 11 1  6.229 -3.335 23.494 
877 11 1  6.556 -5.598 22.218 
878 11 1  8.308 -6.105 20.370 
879 11 1  9.858 -6.158 18.326 
880 11 1 11.464 -5.787 16.307 
881 11 1 13.517 -5.101 15.451 
882 11 1 16.030 -4.364 15.467 
883 11 1 17.476 -3.554 17.355 
884 11 1 18.547 -1.873 18.643 
885 11 1 17.687  0.033 19.721 
886 11 1 15.891  1.590 20.709 
887 11 1 15.183  3.449 21.705 
888 11 1 15.521  6.031 22.288 
889 11 1 17.863  7.281 22.149 
890 11 1 19.862  7.973 23.160 
891 11 1 19.798  9.713 25.062 
892 11 1 21.789 10.666 26.437 
893 11 1 23.919 11.037 27.199 
894 11 1 26.424 10.332 27.173 
895 11 1 28.925  9.676 27.251 
896 11 1 31.454  9.142 27.717 
897 11 1 33.803  8.953 28.629 
898 11 1 36.122  8.562 28.552 
899 11 1 38.252  8.062 27.197 
900 11 1 40.203  6.941 25.907 
901 11 1 41.073  8.506 24.427 
902 11 1 42.433 10.052 23.210 
903 11 1 44.089 10.903 21.505 
904 11 1 45.361 12.111 19.934 
905 11 1 46.186 13.194 17.825 
906 11 1 46.802 14.223 15.559 
907 11 1 48.348 14.817 13.932 
908 11 1  1.154 12.969 13.610 
909 12 1 34.459 16.944 10.560 
910 12 1 34.954 19.313 10.599 
911 12 1 35.520 21.140  8.846 
912 12 1 35.594 22.230  6.770 
913 12 1 37.304 21.841 43.096 
914 12 1 39.561 22.045 41.971 
915 12 1 41.703 21.909 40.408 
916 12 1 43.995 21.659 39.198 
917 12 1 46.427 22.201 38.568 
918 12 1 48.802 22.592 38.880 
919 12 1  2.082 22.898 39.076 
920 12 1  3.476 22.201 37.024 
921 12 1  3.908 21.318 34.979 
922 12 1  3.266 20.341 32.708 
923 12 1  2.105 18.977 30.882 
924 12 1  1.126 17.447 29.018 
925 12 1 -0.030 15.912 27.171 
926 12 1 48.048 14.156 25.446 
927 12 1 46.068 14.358 24.026 
928 12 1 43.458 14.576 23.698 
929 12 1 40.920 14.487 23.069 
930 12 1 38.396 14.222 22.197 
931 12 1 37.826 12.082 21.774 
932 12 1 38.447  9.814 20.701 
933 12 1 38.740  7.658 19.414 
934 12 1 38.566  5.443 19.082 
935 12 1 38.263  2.957 19.637 
936 12 1 39.812  1.603 21.121 
937 12 1 41.698  0.406 22.322 
938 12 1 43.347 -0.447 24.088 
939 12 1 44.938 -1.574 25.843 
940 12 1 46.361 -2.733 27.639 
941 12 1 47.732 -3.743 29.409 
942 12 1 49.340 -4.317 31.228 
943 12 1  2.195 -4.758 32.981 
944 12 1  3.929 -5.615 34.699 
945 12 1  4.918 -6.733 36.600 
946 12 1  5.360 -8.272 38.621 
947 12 1  5.672 56.399 40.703 
948 12 1  6.123 53.834 40.704 
949 12 1  6.395 51.260 40.792 
950 12 1  6.660 49.169 39.851 
951 12 1  7.590 47.835 37.945 
952 12 1  8.699 46.554 36.044 
953 12 1  9.870 45.157 34.121 
954 12 1  9.050 45.237 31.634 
955 12 1  7.399 45.772 30.067 
956 12 1  6.986 48.068 29.461 
957 12 1  6.307 48.666 27.078 
958 12 1  5.445 48.159 24.874 
959 12 1  4.298 46.901 22.884 
960 12 1  3.957 44.305 22.384 
961 12 1  1.950 43.155 21.193 
962 12 1  0.092 41.730 20.096 
963 12 1 47.471 39.818 19.421 
964 12 1 45.975 37.801 19.010 
965 12 1 45.860 36.553 16.808 
966 12 1 46.182 35.946 14.550 
967 12 1 45.945 36.060 12.111 
968 12 1 44.764 35.555  9.848 
969 12 1 42.234 35.919  9.680 
970 12 1 39.998 35.906 10.363 
971 12 1 37.824 35.805 11.012 
972 12 1 35.327 36.339 10.845 
973 12 1 32.779 36.860 10.852 
974 12 1 31.019 34.945 10.215 
975 12 1 29.125 33.106 10.037 
976 12 1 27.110 31.468 10.176 
977 12 1 25.172 29.945 10.596 
978 12 1 23.180 28.578 11.464 
979 12 1 21.037 27.455 12.580 
980 12 1 19.147 26.120 13.655 
981 12 1 17.381 24.314 14.098 
982 12 1 15.722 23.985 16.074 
983 12 1 14.060 24.611 17.998 
984 12 1 12.481 25.385 19.936 
985 12 1 11.921 27.090 21.503 
986 12 1 13.553 28.920 22.273 