LAMMPS data file generated by aa2cg.

2000 atoms
1 atom types
1975 bonds
1 bond types
1950 angles
1 angle types
1925 dihedrals
1 dihedral types

 0.000 49.160 xlo xhi
 0.000 48.940 ylo yhi
 0.000 51.091 zlo zhi

Masses

1 24.022

Atoms # molecular

1 1 1  2.405  6.884 21.726 
2 1 1 24.000 35.311 42.481 
3 2 1 44.909 19.187  1.532 
4 2 1 40.833 21.291  5.076 
5 3 1 27.303 37.873  3.462 
6 3 1 34.494  3.012  0.707 
7 4 1 37.388 42.487 13.841 
8 4 1 21.698  1.063 32.700 
9 5 1 20.130  9.887 46.693 
10 5 1 30.966 15.772 19.165 
11 6 1 33.218 30.090 19.122 
12 6 1 25.167 15.665 44.591 
13 7 1  8.213 41.653 29.681 
14 7 1 11.386  0.125 21.757 
15 8 1 36.834 28.806 10.922 
16 8 1  2.242 38.046 28.000 
17 9 1 46.370 40.316  4.902 
18 9 1 44.088 11.166 32.984 
19 10 1  8.034  6.445 42.942 
20 10 1 39.335 23.724 32.267 
21 11 1 14.602 16.265 21.991 
22 11 1 25.405 48.855 27.306 
23 12 1 24.865 34.724  6.169 
24 12 1 39.705  4.251 22.245 
25 13 1  9.011 42.983 33.728 
26 13 1 36.389 45.159 10.689 
27 14 1  9.552 10.543 44.889 
28 14 1  9.226 28.980  9.048 
29 15 1 33.305 40.584 38.093 
30 15 1 21.049 39.044 27.886 
31 16 1 15.271 32.764  6.424 
32 16 1 32.810 11.687 39.912 
33 17 1 13.374 23.479 10.252 
34 17 1 47.410 12.180 14.133 
35 18 1  5.065 48.381  0.900 
36 18 1 39.810 19.515  1.309 
37 19 1 40.448 15.346 39.419 
38 19 1 25.045  7.655 22.867 
39 20 1 34.139 19.141 27.572 
40 20 1 36.055 15.513 41.122 
41 21 1 35.997 17.834 -0.388 
42 21 1 44.807 20.972 23.409 
43 22 1 19.729 45.531 37.833 
44 22 1 30.601 32.853 28.955 
45 23 1 15.115 47.995 38.336 
46 23 1 29.823 12.627 35.511 
47 24 1 28.690 41.844 47.923 
48 24 1 37.142 11.094 41.294 
49 25 1 48.247 45.073  4.998 
50 25 1 35.842 28.875 39.303 
51 1 1  0.396  8.251 22.787 
52 1 1 47.832  9.684 24.073 
53 1 1 47.093 11.436 25.802 
54 1 1 46.551 13.381 27.422 
55 1 1 44.594 13.122 28.490 
56 1 1 42.102 12.552 28.195 
57 1 1 40.718 12.009 26.085 
58 1 1 38.949 13.557 25.171 
59 1 1 37.431 15.426 24.306 
60 1 1 35.924 17.276 23.388 
61 1 1 34.621 19.386 22.398 
62 1 1 35.815 20.258 20.660 
63 1 1 38.086 21.050 19.840 
64 1 1 39.800 19.726 20.835 
65 1 1 40.938 17.646 21.710 
66 1 1 42.554 16.497 22.988 
67 1 1 44.415 16.442 24.797 
68 1 1 46.841 17.261 24.726 
69 1 1 48.995 17.911 23.951 
70 1 1  1.457 18.374 21.980 
71 1 1  0.710 19.889 20.059 
72 1 1 48.935 21.174 18.050 
73 1 1 47.841 22.353 16.075 
74 1 1 46.135 23.351 14.869 
75 1 1 44.222 24.196 13.701 
76 1 1 43.140 22.805 12.171 
77 1 1 41.923 20.708 11.622 
78 1 1 41.567 18.873 10.153 
79 1 1 41.773 16.672  8.737 
80 1 1 43.988 15.470  8.558 
81 1 1 46.196 14.892  9.154 
82 1 1 48.318 14.941 10.574 
83 1 1  1.371 15.907 11.655 
84 1 1  3.590 17.063 12.292 
85 1 1  5.783 17.947 13.119 
86 1 1  8.055 18.705 13.199 
87 1 1  8.182 20.518 11.343 
88 1 1  7.758 22.150  9.393 
89 1 1  7.001 24.112  7.790 
90 1 1  7.571 24.126  5.273 
91 1 1  5.873 24.854  3.803 
92 1 1  5.001 23.377  1.848 
93 1 1  3.695 21.216  2.038 
94 1 1  2.380 19.063  1.656 
95 1 1  1.140 16.837  1.030 
96 1 1 -0.478 14.903  0.393 
97 1 1 46.750 13.344  0.019 
98 1 1 47.252 11.705 49.535 
99 1 1 48.107  9.611 48.337 
100 1 1  0.962  8.656 48.746 
101 1 1  2.951  9.711 49.751 
102 1 1  3.036 12.383 -0.695 
103 1 1  4.848 13.656  0.578 
104 1 1  6.218 14.944  2.218 
105 1 1  5.134 16.161  4.207 
106 1 1  4.616 17.399  6.344 
107 1 1  3.825 19.186  8.203 
108 1 1  3.042 21.575  7.702 
109 1 1  2.211 23.981  6.983 
110 1 1  1.412 26.337  6.216 
111 1 1  0.302 28.663  5.836 
112 1 1 48.407 30.907  5.281 
113 1 1 47.712 33.216  4.435 
114 1 1 49.490 34.782  4.454 
115 1 1  1.176 35.562  2.170 
116 1 1  2.129 36.554 -0.049 
117 1 1  3.224 37.154 48.776 
118 1 1  4.502 37.044 46.521 
119 1 1  5.484 36.381 44.122 
120 1 1  7.729 36.908 42.828 
121 1 1  9.965 37.603 43.096 
122 1 1 11.325 36.794 45.157 
123 1 1 12.824 35.426 46.522 
124 1 1 15.089 34.620 47.454 
125 1 1 17.282 33.744 48.579 
126 1 1 19.560 33.442 47.341 
127 1 1 21.158 34.700 45.864 
128 1 1 22.801 35.399 44.420 
129 2 1 43.638 17.561  2.901 
130 2 1 42.480 15.674  3.632 
131 2 1 44.031 14.020  3.929 
132 2 1 45.498 12.386  4.097 
133 2 1 46.525 10.280  3.182 
134 2 1 47.611  8.041  2.473 
135 2 1 46.768  5.504  2.566 
136 2 1 45.701  3.193  2.786 
137 2 1 45.022  0.649  3.063 
138 2 1 44.763 46.976  3.457 
139 2 1 45.405 44.840  2.158 
140 2 1 46.169 42.728  0.923 
141 2 1 47.635 41.670 -0.526 
142 2 1  0.861 40.953  0.124 
143 2 1  3.019 42.362 -0.630 
144 2 1  5.079 43.770 -1.338 
145 2 1  7.047 45.373 49.338 
146 2 1  9.582 45.433 49.391 
147 2 1 10.217 47.187 -0.357 
148 2 1 10.272 48.524  1.812 
149 2 1 10.479  0.986  4.041 
150 2 1 11.170  2.210  6.146 
151 2 1 12.142  3.858  7.512 
152 2 1 13.981  5.647  7.831 
153 2 1 15.554  7.622  7.793 
154 2 1 16.167  9.793  7.108 
155 2 1 17.982 10.242  5.809 
156 2 1 20.457 10.231  5.184 
157 2 1 22.594 10.847  5.531 
158 2 1 24.669 11.865  6.057 
159 2 1 26.909 12.735  5.263 
160 2 1 28.892 13.746  4.242 
161 2 1 30.685 13.900  5.752 
162 2 1 32.010 14.709  7.713 
163 2 1 32.767 14.640  9.801 
164 2 1 33.039 13.573 12.081 
165 2 1 34.318 12.686 13.756 
166 2 1 36.290 11.420 14.872 
167 2 1 38.556 10.546 15.890 
168 2 1 40.107  8.508 15.404 
169 2 1 42.450  8.184 14.275 
170 2 1 44.620  7.832 12.931 
171 2 1 46.674  7.411 11.482 
172 2 1 49.060  7.362 12.385 
173 2 1  2.039  7.314 13.728 
174 2 1  3.523  7.448 15.779 
175 2 1  5.199  7.677 17.744 
176 2 1  7.456  8.066 18.995 
177 2 1  9.572  8.896 18.745 
178 2 1  9.988  8.574 16.145 
179 2 1  8.848  9.988 14.301 
180 2 1  9.020  9.409 11.879 
181 2 1  9.206  9.315  9.320 
182 2 1 11.229 10.149  7.832 
183 2 1 11.956  9.646  5.441 
184 2 1 12.831  8.275  3.763 
185 2 1 11.213  6.968  2.127 
186 2 1 10.780  5.268  0.251 
187 2 1  9.993  3.884 49.336 
188 2 1  9.633  2.365 47.408 
189 2 1  8.951  0.623 45.602 
190 2 1  8.021 47.771 44.017 
191 2 1  7.178 46.024 42.292 
192 2 1  5.415 45.377 40.812 
193 2 1  3.084 45.071 39.851 
194 2 1  1.261 43.787 39.123 
195 2 1  0.977 41.853 40.720 
196 2 1  1.191 39.882 42.378 
197 2 1  0.938 37.739 43.783 
198 2 1  0.268 35.633 45.120 
199 2 1 48.162 33.809 46.315 
200 2 1 46.116 32.418 47.165 
201 2 1 44.234 30.902 48.064 
202 2 1 44.110 28.323 47.684 
203 2 1 43.279 26.614 49.396 
204 2 1 43.237 24.680  0.019 
205 2 1 41.977 23.942  1.753 
206 2 1 40.460 23.390  3.562 
207 3 1 29.218 37.349  1.736 
208 3 1 31.420 36.988  0.487 
209 3 1 33.895 36.684 -0.139 
210 3 1 36.399 36.090 -0.327 
211 3 1 38.633 34.770 -0.361 
212 3 1 40.252 33.243  0.368 
213 3 1 41.122 30.803  0.563 
214 3 1 39.734 28.777  1.011 
215 3 1 37.953 27.362  0.473 
216 3 1 35.597 26.921 -0.624 
217 3 1 33.757 28.582 -1.498 
218 3 1 32.272 30.213 48.322 
219 3 1 30.061 29.694 47.286 
220 3 1 28.541 31.561 46.492 
221 3 1 28.910 32.510 44.108 
222 3 1 29.030 31.038 42.368 
223 3 1 30.185 29.342 40.784 
224 3 1 31.243 27.859 39.025 
225 3 1 31.123 26.974 36.733 
226 3 1 29.781 26.028 34.645 
227 3 1 28.335 27.565 33.191 
228 3 1 27.269 28.916 31.340 
229 3 1 26.181 30.065 29.353 
230 3 1 25.220 30.814 27.030 
231 3 1 24.290 31.393 24.707 
232 3 1 23.584 32.095 22.414 
233 3 1 22.726 32.726 20.031 
234 3 1 23.738 31.746 17.944 
235 3 1 24.721 30.556 15.929 
236 3 1 25.428 29.786 13.569 
237 3 1 26.048 29.308 11.130 
238 3 1 26.744 28.971  8.717 
239 3 1 25.421 29.571  6.577 
240 3 1 23.999 30.409  4.554 
241 3 1 22.069 31.467  3.208 
242 3 1 20.032 32.447  2.051 
243 3 1 18.075 33.625  1.907 
244 3 1 16.301 35.240  2.839 
245 3 1 15.295 37.163  4.120 
246 3 1 14.738 39.152  5.617 
247 3 1 15.166 41.388  5.969 
248 3 1 16.269 43.779  5.791 
249 3 1 18.776 44.553  5.915 
250 3 1 20.246 45.276  3.945 
251 3 1 21.482 46.023  1.765 
252 3 1 22.837 46.338 -0.387 
253 3 1 23.746 45.889 48.584 
254 3 1 23.115 43.607 47.798 
255 3 1 22.759 41.232 46.692 
256 3 1 24.424 39.167 46.788 
257 3 1 25.850 37.750 47.847 
258 3 1 27.071 36.134 48.924 
259 3 1 28.569 34.502 49.655 
260 3 1 30.744 33.418 -0.376 
261 3 1 32.989 32.605  0.854 
262 3 1 35.088 31.992  2.220 
263 3 1 37.043 31.689  3.783 
264 3 1 38.719 30.691  5.100 
265 3 1 39.773 28.585  6.145 
266 3 1 38.487 26.383  6.098 
267 3 1 36.398 25.423  6.227 
268 3 1 35.022 25.942  8.287 
269 3 1 33.750 25.503 10.456 
270 3 1 33.280 23.040 10.792 
271 3 1 32.434 20.821 11.822 
272 3 1 31.480 18.677 12.917 
273 3 1 30.392 16.723 14.172 
274 3 1 29.398 14.735 15.373 
275 3 1 28.674 12.505 16.401 
276 3 1 28.837 10.363 17.459 
277 3 1 29.188  8.246 16.053 
278 3 1 29.190  6.728 14.270 
279 3 1 28.687  6.141 11.793 
280 3 1 28.712  5.250  9.322 
281 3 1 28.635  4.129  6.987 
282 3 1 28.528  2.526  4.963 
283 3 1 30.550  1.953  3.513 
284 3 1 32.479  2.025  2.101 
285 4 1 35.705 40.943 12.575 
286 4 1 34.958 39.060 11.419 
287 4 1 35.398 36.611 10.601 
288 4 1 34.891 34.752  9.138 
289 4 1 33.824 33.275  7.295 
290 4 1 32.026 34.033  5.644 
291 4 1 29.953 34.533  4.709 
292 4 1 28.445 32.797  3.680 
293 4 1 27.953 30.938  2.500 
294 4 1 27.174 28.976  1.554 
295 4 1 25.558 27.164  0.703 
296 4 1 24.478 25.795 -0.844 
297 4 1 24.410 25.107 47.848 
298 4 1 24.844 24.790 45.332 
299 4 1 25.278 24.518 42.832 
300 4 1 25.663 26.464 41.328 
301 4 1 25.866 28.132 39.447 
302 4 1 25.623 29.357 37.221 
303 4 1 25.143 30.614 35.002 
304 4 1 24.301 32.107 32.977 
305 4 1 23.775 33.416 30.873 
306 4 1 24.690 34.878 29.404 
307 4 1 26.267 36.862 28.987 
308 4 1 26.099 39.360 29.607 
309 4 1 25.683 40.330 31.947 
310 4 1 24.490 41.080 33.971 
311 4 1 22.272 41.063 35.388 
312 4 1 20.665 40.395 36.921 
313 4 1 19.571 38.755 38.568 
314 4 1 18.954 36.312 37.918 
315 4 1 18.202 33.930 37.404 
316 4 1 17.083 31.739 37.216 
317 4 1 16.032 29.481 37.211 
318 4 1 15.261 26.967 37.121 
319 4 1 16.263 25.010 38.440 
320 4 1 17.480 22.936 39.511 
321 4 1 19.572 22.282 38.721 
322 4 1 22.142 22.701 38.421 
323 4 1 24.656 23.012 38.161 
324 4 1 27.100 23.705 37.648 
325 4 1 28.565 23.361 39.405 
326 4 1 30.618 21.782 38.982 
327 4 1 32.876 20.704 38.641 
328 4 1 34.643 19.712 37.418 
329 4 1 35.052 17.228 36.614 
330 4 1 35.823 14.716 36.412 
331 4 1 34.708 13.208 34.597 
332 4 1 33.788 11.858 32.676 
333 4 1 32.306 11.344 30.954 
334 4 1 30.294 11.758 29.389 
335 4 1 29.814 13.746 27.814 
336 4 1 29.140 15.379 25.863 
337 4 1 28.849 16.965 23.898 
338 4 1 28.545 18.696 21.912 
339 4 1 28.229 20.410 20.012 
340 4 1 26.007 21.469 19.293 
341 4 1 23.725 21.958 18.974 
342 4 1 21.398 22.459 18.682 
343 4 1 20.861 21.940 16.486 
344 4 1 20.595 20.117 14.846 
345 4 1 20.209 18.094 13.225 
346 4 1 20.183 16.090 11.603 
347 4 1 20.431 13.990 10.073 
348 4 1 20.476 11.440 10.431 
349 4 1 20.160  8.885 10.620 
350 4 1 19.407  6.507 10.395 
351 4 1 18.859  3.989  9.885 
352 4 1 17.584  1.902  9.933 
353 4 1 15.631  0.635 10.989 
354 4 1 14.504 48.109 12.555 
355 4 1 14.370 -0.007 15.024 
356 4 1 13.667  0.851 17.310 
357 4 1 15.105  1.159 19.430 
358 4 1 16.604  1.174 21.619 
359 4 1 18.118  1.212 23.620 
360 4 1 19.295  1.079 25.817 
361 4 1 20.024  0.853 28.293 
362 4 1 20.852  0.730 30.506 
363 5 1 18.837  9.234 45.118 
364 5 1 17.934  7.358 43.541 
365 5 1 16.994  5.722 41.870 
366 5 1 16.079  4.135 40.044 
367 5 1 17.154  3.245 37.889 
368 5 1 18.066  2.191 35.747 
369 5 1 16.938  1.165 33.726 
370 5 1 15.905  0.078 31.691 
371 5 1 15.229 49.132 29.662 
372 5 1 13.924  1.258 28.032 
373 5 1 11.941  1.979 26.700 
374 5 1 10.042  2.990 25.260 
375 5 1  8.056  4.036 23.998 
376 5 1  6.810  4.258 22.000 
377 5 1  6.182  3.798 19.570 
378 5 1  5.656  3.337 17.057 
379 5 1  5.233  2.650 14.664 
380 5 1  5.976  3.665 12.526 
381 5 1  5.878  5.122 10.714 
382 5 1  4.613  6.822  9.145 
383 5 1  2.830  5.881  7.858 
384 5 1  1.761  4.461  5.937 
385 5 1  0.800  2.906  4.063 
386 5 1 49.196  1.308  2.006 
387 5 1 48.898 48.308  0.381 
388 5 1 48.675 46.274 -1.147 
389 5 1  0.537 46.317 47.517 
390 5 1  1.480 45.967 45.039 
391 5 1  3.068 43.921 44.535 
392 5 1  4.718 42.303 44.818 
393 5 1  6.753 41.361 46.240 
394 5 1  7.517 39.979 47.846 
395 5 1  8.007 38.173 49.066 
396 5 1  8.305 35.587 49.287 
397 5 1  7.574 33.569 50.056 
398 5 1  4.983 33.289 50.143 
399 5 1  2.964 32.087 49.345 
400 5 1  1.669 30.330 48.025 
401 5 1  0.370 28.464 46.838 
402 5 1  0.236 25.978 47.662 
403 5 1 47.677 24.388 46.874 
404 5 1 47.334 22.512 48.238 
405 5 1 47.906 20.206 49.289 
406 5 1 47.766 17.972 48.134 
407 5 1 47.971 15.988 46.581 
408 5 1 48.081 13.709 45.369 
409 5 1 48.082 11.301 44.444 
410 5 1 47.882  8.955 43.713 
411 5 1 46.740  6.955 43.799 
412 5 1 44.695  5.539 44.348 
413 5 1 42.834  3.899 44.916 
414 5 1 40.955  2.290 45.506 
415 5 1 39.277  0.630 46.386 
416 5 1 37.615 47.931 47.582 
417 5 1 37.323 47.581 50.123 
418 5 1 36.843 47.238  1.548 
419 5 1 36.371 46.969  4.008 
420 5 1 35.795 47.142  6.351 
421 5 1 34.581 48.146  8.417 
422 5 1 33.360  0.419 10.342 
423 5 1 32.987  1.442 12.427 
424 5 1 33.932  1.743 14.718 
425 5 1 35.461  2.629 16.216 
426 5 1 36.973  4.579 17.052 
427 5 1 37.453  6.437 18.396 
428 5 1 37.983  7.884 20.215 
429 5 1 37.873  8.644 22.502 
430 5 1 36.877  9.009 24.817 
431 5 1 35.613  9.461 27.029 
432 5 1 34.816  7.615 28.696 
433 5 1 32.331  6.983 29.230 
434 5 1 31.149  4.747 29.335 
435 5 1 29.550  5.359 27.595 
436 5 1 28.412  6.619 25.717 
437 5 1 28.278  9.213 25.782 
438 5 1 28.289 10.916 23.899 
439 5 1 27.953 12.595 21.925 
440 5 1 29.539 14.238 20.662 
441 6 1 33.222 31.796 20.838 
442 6 1 32.710 33.158 23.057 
443 6 1 32.575 34.754 25.032 
444 6 1 32.984 36.298 26.932 
445 6 1 33.257 37.925 28.914 
446 6 1 32.885 39.758 30.752 
447 6 1 33.144 41.514 32.713 
448 6 1 32.662 43.590 33.708 
449 6 1 30.317 44.309 34.590 
450 6 1 30.095 46.712 34.589 
451 6 1 29.447 48.909 34.915 
452 6 1 27.879  2.021 34.768 
453 6 1 25.561  2.058 35.934 
454 6 1 23.787  1.492 37.538 
455 6 1 22.482  0.265 39.410 
456 6 1 22.429  1.564 41.250 
457 6 1 21.942  3.897 42.260 
458 6 1 22.128  5.573 43.843 
459 6 1 22.996  6.738 45.984 
460 6 1 22.870  6.087 48.321 
461 6 1 22.344  5.600 -0.332 
462 6 1 20.146  6.209 -0.327 
463 6 1 18.765  4.105 -0.996 
464 6 1 17.807  3.320 47.733 
465 6 1 18.145  2.280 45.644 
466 6 1 18.482 -0.245 45.416 
467 6 1 20.786 47.537 45.057 
468 6 1 23.119 46.539 44.560 
469 6 1 23.610 45.096 42.573 
470 6 1 24.260 44.606 40.436 
471 6 1 24.607 45.066 38.015 
472 6 1 24.701 45.502 35.526 
473 6 1 25.375 45.969 33.078 
474 6 1 26.743 45.490 31.137 
475 6 1 28.703 44.470 29.739 
476 6 1 30.514 43.497 28.154 
477 6 1 32.366 42.520 26.550 
478 6 1 34.147 41.483 25.090 
479 6 1 34.743 39.592 23.832 
480 6 1 34.473 37.573 22.285 
481 6 1 35.125 35.981 20.661 
482 6 1 36.351 34.365 19.125 
483 6 1 38.150 32.468 19.595 
484 6 1 39.538 31.170 21.088 
485 6 1 40.761 30.395 23.313 
486 6 1 40.514 29.666 25.557 
487 6 1 40.345 28.589 27.632 
488 6 1 41.241 28.051 30.010 
489 6 1 42.205 27.738 32.430 
490 6 1 41.999 27.137 34.698 
491 6 1 41.447 27.057 36.994 
492 6 1 40.921 26.799 39.297 
493 6 1 39.393 25.923 41.218 
494 6 1 37.979 25.378 43.266 
495 6 1 35.886 26.749 44.065 
496 6 1 34.749 28.683 44.349 
497 6 1 33.991 30.979 43.411 
498 6 1 33.525 33.418 42.620 
499 6 1 34.842 34.911 40.879 
500 6 1 36.129 35.557 38.883 
501 6 1 37.487 35.413 36.648 
502 6 1 38.402 33.204 35.695 
503 6 1 38.870 30.798 35.392 
504 6 1 38.386 29.003 33.660 
505 6 1 36.448 27.352 33.922 
506 6 1 34.712 25.525 34.344 
507 6 1 34.342 23.410 32.903 
508 6 1 34.000 21.261 31.544 
509 6 1 34.511 18.757 32.224 
510 6 1 32.772 16.867 32.643 
511 6 1 31.255 16.428 30.856 
512 6 1 29.071 15.875 31.633 
513 6 1 27.176 14.342 32.688 
514 6 1 25.401 13.102 34.061 
515 6 1 23.992 12.732 35.855 
516 6 1 23.377 13.214 38.285 
517 6 1 22.636 14.059 40.559 
518 6 1 23.981 15.065 42.381 
519 7 1  7.244 43.980 30.190 
520 7 1  6.272 45.570 31.545 
521 7 1  5.508 46.861 33.616 
522 7 1  6.664 47.027 35.975 
523 7 1  6.349 49.069 37.474 
524 7 1  6.237  2.138 39.069 
525 7 1  5.526  2.045 41.592 
526 7 1  4.808  1.249 43.741 
527 7 1  4.115  0.655 45.864 
528 7 1  3.696  1.106 48.450 
529 7 1  3.539  3.266 49.757 
530 7 1  3.198  5.185  0.297 
531 7 1  2.848  7.182  1.919 
532 7 1  2.361  9.234  3.282 
533 7 1  2.034 11.502  4.423 
534 7 1  1.268 13.747  5.357 
535 7 1 -0.322 15.426  5.864 
536 7 1 -0.447 17.695  4.799 
537 7 1 48.187 20.090  3.940 
538 7 1 47.981 22.552  3.059 
539 7 1 47.838 25.092  2.308 
540 7 1 47.702 27.637  1.512 
541 7 1 47.269 30.145  0.879 
542 7 1 46.265 32.564  0.721 
543 7 1 45.076 34.839  0.765 
544 7 1 44.306 37.179  0.683 
545 7 1 43.512 39.332  1.347 
546 7 1 42.385 40.950  3.108 
547 7 1 41.775 42.632  4.809 
548 7 1 41.126 44.667  5.777 
549 7 1 40.897 46.908  6.308 
550 7 1 41.679 49.225  6.928 
551 7 1 41.582  2.540  7.395 
552 7 1 40.315  4.757  7.532 
553 7 1 39.467  7.026  8.340 
554 7 1 38.534  9.104  9.493 
555 7 1 36.175 10.126  9.341 
556 7 1 35.381 10.394  7.182 
557 7 1 34.664  9.915  4.764 
558 7 1 36.348  8.301  3.891 
559 7 1 37.915  7.077  2.623 
560 7 1 39.156  6.755  0.448 
561 7 1 38.535  8.714 -0.878 
562 7 1 38.136 10.877 -1.779 
563 7 1 38.366 13.164 48.025 
564 7 1 38.406 15.501 47.011 
565 7 1 38.213 17.952 46.515 
566 7 1 38.588 19.094 44.230 
567 7 1 38.510 20.573 42.079 
568 7 1 40.559 21.229 40.966 
569 7 1 42.936 21.049 39.812 
570 7 1 45.305 21.383 39.066 
571 7 1 46.997 19.628 38.208 
572 7 1 47.871 17.405 38.043 
573 7 1 49.101 15.463 38.514 
574 7 1  1.701 14.139 39.750 
575 7 1  3.311 12.846 41.284 
576 7 1  5.562 13.698 42.051 
577 7 1  7.550 14.968 42.291 
578 7 1  9.063 16.918 41.659 
579 7 1  8.512 19.456 42.136 
580 7 1  7.522 21.281 40.629 
581 7 1  6.724 23.022 38.887 
582 7 1  6.775 24.233 36.541 
583 7 1  6.889 25.135 34.150 
584 7 1  7.317 26.081 31.735 
585 7 1  8.031 28.580 31.330 
586 7 1  8.507 31.021 31.272 
587 7 1  8.780 33.498 30.937 
588 7 1 10.976 34.775 30.966 
589 7 1 11.523 37.276 30.281 
590 7 1 12.579 39.682 30.259 
591 7 1 14.902 40.777 29.839 
592 7 1 17.098 42.023 29.472 
593 7 1 17.310 44.228 28.222 
594 7 1 16.374 45.794 26.691 
595 7 1 14.750 46.698 24.895 
596 7 1 13.066 47.661 23.168 
597 8 1 37.831 30.741 10.110 
598 8 1 39.956 32.165  9.604 
599 8 1 41.861 33.787  9.183 
600 8 1 43.919 32.832  8.698 
601 8 1 45.515 31.173  8.226 
602 8 1 45.188 28.640  8.309 
603 8 1 46.809 26.997  9.213 
604 8 1 48.150 25.098 10.217 
605 8 1  0.009 23.057 11.520 
606 8 1 48.617 20.590 10.978 
607 8 1 47.657 19.033  9.542 
608 8 1 45.380 19.866  8.616 
609 8 1 44.956 21.635  7.154 
610 8 1 44.501 23.895  6.198 
611 8 1 44.346 26.204  5.143 
612 8 1 44.300 28.528  3.918 
613 8 1 43.423 30.939  4.267 
614 8 1 42.424 33.317  4.397 
615 8 1 41.241 35.534  4.337 
616 8 1 39.552 37.096  4.873 
617 8 1 37.235 37.527  5.149 
618 8 1 34.703 37.535  5.060 
619 8 1 32.773 38.219  6.245 
620 8 1 31.242 39.306  7.953 
621 8 1 29.409 40.236  9.524 
622 8 1 27.701 41.287 11.105 
623 8 1 25.728 41.701 12.700 
624 8 1 24.834 40.360 14.727 
625 8 1 25.335 40.720 17.260 
626 8 1 25.306 40.954 19.917 
627 8 1 24.296 39.051 21.419 
628 8 1 23.345 37.180 23.065 
629 8 1 22.511 35.393 24.801 
630 8 1 21.274 34.051 26.600 
631 8 1 19.920 32.613 28.300 
632 8 1 19.119 30.455 28.094 
633 8 1 20.357 28.406 27.031 
634 8 1 21.392 26.345 25.872 
635 8 1 23.076 26.764 23.946 
636 8 1 24.583 27.314 21.951 
637 8 1 25.025 27.763 19.497 
638 8 1 27.106 27.377 18.061 
639 8 1 29.348 27.590 16.775 
640 8 1 31.704 27.652 15.669 
641 8 1 33.790 27.055 15.207 
642 8 1 35.649 25.370 14.994 
643 8 1 37.751 24.530 15.291 
644 8 1 39.994 24.598 16.609 
645 8 1 42.345 25.055 17.768 
646 8 1 44.612 25.441 18.784 
647 8 1 46.983 25.619 19.646 
648 8 1 48.097 24.659 21.640 
649 8 1 48.603 23.603 23.548 
650 8 1 48.231 22.857 25.968 
651 8 1 48.042 22.012 28.434 
652 8 1 48.102 21.150 30.872 
653 8 1 48.751 19.783 32.578 
654 8 1  0.907 18.088 33.801 
655 8 1  2.434 16.466 35.100 
656 8 1  4.265 15.183 36.416 
657 8 1  6.497 16.112 37.254 
658 8 1  8.893 17.036 37.193 
659 8 1 10.653 16.309 35.379 
660 8 1 11.396 15.904 33.250 
661 8 1 11.493 15.976 30.939 
662 8 1 12.065 17.307 28.844 
663 8 1 12.633 19.127 27.114 
664 8 1 13.211 20.907 25.444 
665 8 1 13.181 22.700 23.582 
666 8 1 12.956 24.725 22.036 
667 8 1 13.083 27.006 20.793 
668 8 1 12.225 29.418 21.319 
669 8 1 10.898 31.662 21.821 
670 8 1  8.369 32.009 21.930 
671 8 1  5.865 32.413 21.861 
672 8 1  4.606 33.499 23.478 
673 8 1  3.401 34.710 24.776 
674 8 1  2.901 36.902 26.109 
675 9 1 45.327 41.771  6.764 
676 9 1 44.907 42.595  8.831 
677 9 1 45.213 42.541 11.329 
678 9 1 44.253 40.931 13.088 
679 9 1 42.786 39.612 14.392 
680 9 1 40.546 38.756 13.383 
681 9 1 40.145 36.320 12.488 
682 9 1 40.373 34.608 14.091 
683 9 1 40.952 33.871 16.277 
684 9 1 42.756 35.075 16.983 
685 9 1 45.040 36.154 16.669 
686 9 1 47.191 37.564 16.233 
687 9 1 47.865 39.750 16.073 
688 9 1 47.889 42.360 16.089 
689 9 1 48.155 44.897 16.671 
690 9 1 47.671 46.930 15.113 
691 9 1 47.375 48.697 13.276 
692 9 1 45.499  1.483 12.875 
693 9 1 43.852  3.217 12.048 
694 9 1 41.875  4.440 11.940 
695 9 1 39.437  5.034 12.614 
696 9 1 37.293  4.401 12.142 
697 9 1 37.679  1.825 11.502 
698 9 1 39.198 48.899 11.555 
699 9 1 41.157 47.357 12.129 
700 9 1 43.419 47.237 10.789 
701 9 1 45.262 47.918  9.315 
702 9 1 46.890 48.474  7.838 
703 9 1 49.429 48.183  7.909 
704 9 1  2.829 47.863  7.643 
705 9 1  5.297 47.292  7.620 
706 9 1  7.776 46.563  7.452 
707 9 1  8.947 45.618  5.420 
708 9 1 11.534 44.981  5.355 
709 9 1 12.804 44.430  3.480 
710 9 1 14.382 45.012  1.555 
711 9 1 15.957 46.928  1.208 
712 9 1 17.781 48.417  0.302 
713 9 1 19.840  0.303 -0.948 
714 9 1 21.927  1.191 48.879 
715 9 1 23.982  2.131 47.556 
716 9 1 26.088  2.910 46.216 
717 9 1 27.966  4.367 45.818 
718 9 1 27.648  6.692 44.878 
719 9 1 28.692  8.942 45.388 
720 9 1 29.918 11.200 45.664 
721 9 1 29.249 13.756 45.903 
722 9 1 29.076 16.406 46.343 
723 9 1 29.149 18.567 47.383 
724 9 1 28.365 19.814 49.293 
725 9 1 26.849 20.467  0.192 
726 9 1 25.808 21.988  1.550 
727 9 1 25.577 23.658  2.996 
728 9 1 26.396 25.451  4.544 
729 9 1 28.616 25.532  5.815 
730 9 1 30.417 24.709  6.915 
731 9 1 32.043 23.244  5.521 
732 9 1 33.308 22.607  3.711 
733 9 1 33.628 22.803  1.175 
734 9 1 33.920 23.111 -1.256 
735 9 1 34.629 22.686 47.706 
736 9 1 35.316 21.266 45.758 
737 9 1 33.497 20.244 44.628 
738 9 1 31.310 20.086 43.399 
739 9 1 30.002 18.490 42.103 
740 9 1 29.101 16.265 41.292 
741 9 1 28.086 13.997 40.383 
742 9 1 27.246 11.701 39.649 
743 9 1 28.562  9.624 38.838 
744 9 1 29.790  7.489 38.252 
745 9 1 30.895  5.269 37.734 
746 9 1 32.834  4.002 37.470 
747 9 1 35.351  3.546 37.443 
748 9 1 37.844  3.193 36.996 
749 9 1 39.743  4.762 37.551 
750 9 1 41.393  6.068 36.193 
751 9 1 43.290  7.402 34.949 
752 9 1 44.473  8.601 33.248 
753 10 1  8.537  7.820 40.838 
754 10 1  6.848  7.707 38.791 
755 10 1  4.809  9.184 38.280 
756 10 1  4.292 10.552 36.039 
757 10 1  3.673 11.954 33.970 
758 10 1  2.922 12.765 31.711 
759 10 1  2.709 14.365 30.124 
760 10 1  2.747 16.613 29.097 
761 10 1  2.588 18.872 27.898 
762 10 1  3.019 20.393 26.113 
763 10 1  3.725 21.270 23.857 
764 10 1  4.125 21.965 21.381 
765 10 1  4.462 22.506 18.831 
766 10 1  4.428 22.848 16.233 
767 10 1  4.162 23.244 13.747 
768 10 1  3.865 24.523 11.810 
769 10 1  3.682 26.907 10.845 
770 10 1  3.080 29.361 10.307 
771 10 1  2.425 31.820  9.684 
772 10 1  2.006 34.325  9.003 
773 10 1  1.749 36.753  8.130 
774 10 1  1.502 39.064  7.122 
775 10 1  1.106 41.282  8.424 
776 10 1  1.158 43.438  9.906 
777 10 1  1.189 45.474 11.551 
778 10 1  3.152 46.544 12.934 
779 10 1  4.824 47.230 14.748 
780 10 1  6.743 47.895 16.270 
781 10 1  9.043 48.381 15.851 
782 10 1 10.698 46.572 16.494 
783 10 1 12.299 45.118 17.636 
784 10 1 13.022 43.194 19.214 
785 10 1 14.471 41.903 20.508 
786 10 1 16.062 41.221 18.653 
787 10 1 18.159 40.149 18.112 
788 10 1 20.177 38.543 18.588 
789 10 1 22.117 37.260 18.274 
790 10 1 23.970 36.293 16.868 
791 10 1 25.795 35.282 15.435 
792 10 1 28.041 36.522 15.407 
793 10 1 29.843 36.978 13.601 
794 10 1 31.145 36.648 11.473 
795 10 1 29.320 35.471 10.374 
796 10 1 27.102 34.653 10.316 
797 10 1 24.927 33.627 11.038 
798 10 1 22.644 32.801 11.777 
799 10 1 21.021 33.413 13.710 
800 10 1 19.309 34.042 15.485 
801 10 1 17.581 35.344 16.412 
802 10 1 15.395 36.768 16.286 
803 10 1 13.350 38.262 15.890 
804 10 1 11.274 39.680 15.187 
805 10 1 12.333 41.710 14.570 
806 10 1 14.667 42.507 14.138 
807 10 1 16.411 43.604 13.070 
808 10 1 17.927 45.145 11.738 
809 10 1 19.474 46.614 10.301 
810 10 1 21.255 47.933  9.054 
811 10 1 22.807 47.905  7.347 
812 10 1 24.481 46.896  5.665 
813 10 1 26.263 46.545  3.913 
814 10 1 27.723 46.797  1.821 
815 10 1 28.717 47.418 -0.476 
816 10 1 28.269 46.691 48.218 
817 10 1 28.018 45.958 45.758 
818 10 1 27.982 44.492 43.883 
819 10 1 28.490 42.261 42.797 
820 10 1 28.996 40.130 41.665 
821 10 1 29.337 37.596 40.889 
822 10 1 29.986 35.294 40.015 
823 10 1 30.292 33.664 38.287 
824 10 1 30.686 32.828 35.989 
825 10 1 31.330 31.601 33.874 
826 10 1 32.260 30.001 32.116 
827 10 1 33.799 28.379 30.743 
828 10 1 35.421 26.843 29.695 
829 10 1 37.176 25.290 28.742 
830 10 1 38.561 24.341 30.190 
831 11 1 15.095 18.567 22.360 
832 11 1 16.394 19.935 20.584 
833 11 1 17.270 22.340 21.124 
834 11 1 18.067 24.740 21.432 
835 11 1 19.100 27.077 21.679 
836 11 1 19.248 29.302 22.314 
837 11 1 18.827 31.444 22.506 
838 11 1 18.299 33.853 21.596 
839 11 1 17.880 36.077 21.709 
840 11 1 17.826 38.288 22.917 
841 11 1 18.063 40.612 24.097 
842 11 1 19.759 41.864 23.232 
843 11 1 20.667 42.710 21.015 
844 11 1 21.509 43.991 19.026 
845 11 1 21.009 43.180 16.676 
846 11 1 20.691 41.690 14.908 
847 11 1 20.575 39.400 13.763 
848 11 1 18.476 38.661 12.615 
849 11 1 16.262 37.942 11.562 
850 11 1 13.830 37.224 10.966 
851 11 1 11.702 36.126  9.884 
852 11 1  9.534 35.320  8.825 
853 11 1  8.388 34.532  6.924 
854 11 1  9.392 32.547  5.681 
855 11 1 10.097 30.441  4.332 
856 11 1 11.165 28.727  2.678 
857 11 1 11.520 26.680  1.483 
858 11 1  9.406 25.729  0.677 
859 11 1  8.325 27.001 -1.425 
860 11 1  6.978 28.219 47.753 
861 11 1  5.448 29.396 45.953 
862 11 1  3.685 30.444 44.476 
863 11 1  1.474 31.242 43.281 
864 11 1 48.376 32.036 42.263 
865 11 1 46.387 33.388 41.256 
866 11 1 47.210 34.920 39.787 
867 11 1 48.744 36.819 38.974 
868 11 1  0.868 37.729 37.364 
869 11 1  2.352 37.628 35.199 
870 11 1  3.895 37.746 33.109 
871 11 1  5.734 37.831 31.361 
872 11 1  5.708 36.388 29.228 
873 11 1  5.863 33.929 28.486 
874 11 1  5.858 31.437 27.836 
875 11 1  5.880 28.855 27.469 
876 11 1  7.312 27.749 25.609 
877 11 1  6.910 25.352 24.820 
878 11 1  8.327 23.571 23.529 
879 11 1  9.154 21.708 21.947 
880 11 1  8.314 19.291 21.755 
881 11 1  6.788 17.895 20.614 
882 11 1  4.726 17.275 19.275 
883 11 1  2.717 16.674 17.737 
884 11 1  0.444 16.503 16.548 
885 11 1 47.322 16.580 15.502 
886 11 1 45.000 16.537 14.326 
887 11 1 43.088 15.424 13.495 
888 11 1 41.695 13.378 12.926 
889 11 1 41.871 11.849 10.784 
890 11 1 43.161 10.533  9.306 
891 11 1 45.215 10.081  7.984 
892 11 1 47.541  9.779  7.789 
893 11 1  0.942  9.939  8.105 
894 11 1  2.344 11.016 10.075 
895 11 1  3.397 12.145 12.181 
896 11 1  4.116 13.303 14.294 
897 11 1  6.420 14.059 14.956 
898 11 1  8.500 14.941 16.087 
899 11 1 10.494 14.656 17.184 
900 11 1 12.440 13.188 18.019 
901 11 1 14.334 11.787 19.039 
902 11 1 14.805  9.287 18.696 
903 11 1 15.567  6.770 18.977 
904 11 1 17.777  5.937 19.749 
905 11 1 19.866  5.221 20.884 
906 11 1 21.706  4.296 22.327 
907 11 1 23.209  2.748 23.746 
908 11 1 24.475  1.230 25.315 
909 12 1 23.109 36.333  5.083 
910 12 1 21.501 38.084  4.268 
911 12 1 19.898 39.827  3.053 
912 12 1 18.497 41.349  1.607 
913 12 1 18.130 42.541 -0.366 
914 12 1 17.580 43.597 48.657 
915 12 1 15.961 43.931 47.027 
916 12 1 13.825 43.673 45.626 
917 12 1 11.632 42.966 44.410 
918 12 1  9.591 41.967 43.174 
919 12 1  7.710 41.094 41.716 
920 12 1  5.838 40.158 40.127 
921 12 1  5.096 39.649 38.000 
922 12 1  4.858 41.618 36.483 
923 12 1  3.748 43.434 35.547 
924 12 1  2.458 42.863 33.660 
925 12 1  1.865 42.717 31.205 
926 12 1  1.324 42.415 28.745 
927 12 1  0.478 42.292 26.320 
928 12 1 48.596 42.229 23.981 
929 12 1 47.520 42.051 21.698 
930 12 1 45.828 41.715 20.249 
931 12 1 43.731 40.655 19.892 
932 12 1 42.135 39.174 19.060 
933 12 1 39.878 38.562 17.927 
934 12 1 37.515 38.033 16.896 
935 12 1 35.087 39.133 17.024 
936 12 1 32.739 40.261 17.017 
937 12 1 30.639 41.755 16.833 
938 12 1 28.851 43.615 16.379 
939 12 1 26.974 45.333 16.186 
940 12 1 25.823 45.866 13.910 
941 12 1 25.192 45.792 11.455 
942 12 1 25.553 44.998  9.330 
943 12 1 27.205 43.915  7.664 
944 12 1 28.473 42.771  5.838 
945 12 1 29.989 41.991  3.888 
946 12 1 31.378 41.470  1.868 
947 12 1 32.880 41.129 -0.227 
948 12 1 34.478 41.015 48.860 
949 12 1 35.508 42.241 47.162 
950 12 1 35.982 44.116 45.496 
951 12 1 36.439 45.956 43.750 
952 12 1 36.829 47.517 41.740 
953 12 1 36.457  1.154 41.697 
954 12 1 37.313  3.261 41.800 
955 12 1 38.962  5.190 41.591 
956 12 1 40.712  7.117 41.229 
957 12 1 42.222  9.163 40.947 
958 12 1 43.758 11.286 40.867 
959 12 1 45.249 13.241 41.214 
960 12 1 45.894 15.308 42.012 
961 12 1 45.892 17.804 42.759 
962 12 1 46.982 19.938 43.191 
963 12 1 47.948 22.108 42.711 
964 12 1 47.832 24.555 42.173 
965 12 1 48.103 27.054 41.601 
966 12 1 46.577 28.464 40.028 
967 12 1 45.205 29.936 38.427 
968 12 1 43.902 31.850 37.361 
969 12 1 42.661 33.927 36.403 
970 12 1 43.729 36.105 35.492 
971 12 1 43.344 37.404 33.339 
972 12 1 43.171 37.575 31.032 
973 12 1 42.760 36.613 28.717 
974 12 1 42.810 36.829 26.344 
975 12 1 41.791 38.228 24.800 
976 12 1 40.049 39.735 23.592 
977 12 1 38.670 41.569 22.405 
978 12 1 37.412 42.473 20.759 
979 12 1 39.049 43.426 19.203 
980 12 1 41.078 44.933 18.524 
981 12 1 43.594 45.812 18.648 
982 12 1 44.411 48.315 18.992 
983 12 1 45.838  1.481 19.405 
984 12 1 45.538  3.156 21.340 
985 12 1 44.366  4.777 22.388 
986 12 1 42.044  5.252 22.133 