LAMMPS data file generated by aa2cg.

2660 atoms
1 atom types
2660 bonds
1 bond types
2660 angles
1 angle types
2660 dihedrals
1 dihedral types

 0.000 56.733 xlo xhi
 0.000 46.611 ylo yhi
 0.000 48.692 zlo zhi

Masses

1 24.022

Atoms # molecular

1 1 1 -3.383  2.441 48.516 
2 1 1 53.222  2.457  2.364 
3 1 1 53.049  2.422  4.920 
4 1 1 53.047  2.341  7.470 
5 1 1 53.037  2.225 10.083 
6 1 1 52.840  2.127 12.676 
7 1 1 53.037  2.297 15.247 
8 1 1 -3.374  2.502 17.840 
9 1 1 -3.275  2.562 20.419 
10 1 1 -3.057  2.538 22.951 
11 1 1 -2.874  2.339 25.530 
12 1 1 -2.786  2.367 28.114 
13 1 1 -3.071  2.573 30.577 
14 1 1 -3.129  2.499 33.162 
15 1 1 -2.954  2.449 35.740 
16 1 1 -3.060  2.409 38.256 
17 1 1 -3.099  2.248 40.857 
18 1 1 -3.226  2.245 43.443 
19 1 1 -3.246  2.163 46.059 
20 2 1  0.753  4.566 48.735 
21 2 1  0.915  4.642  2.556 
22 2 1  0.751  4.623  5.121 
23 2 1  0.397  4.700  7.622 
24 2 1  0.066  4.379 10.108 
25 2 1  0.189  4.428 12.756 
26 2 1  0.359  4.631 15.312 
27 2 1  0.482  4.643 17.895 
28 2 1  0.570  4.695 20.427 
29 2 1  0.504  4.776 23.012 
30 2 1  0.623  4.817 25.663 
31 2 1  0.919  4.845 28.184 
32 2 1  0.788  4.598 30.745 
33 2 1  0.915  4.413 33.304 
34 2 1  0.876  4.489 35.840 
35 2 1  0.829  4.405 38.463 
36 2 1  0.720  4.159 41.033 
37 2 1  0.839  4.186 43.659 
38 2 1  0.747  4.395 46.194 
39 3 1 53.076  6.655 48.914 
40 3 1 53.066  6.862  2.743 
41 3 1 53.126  7.033  5.306 
42 3 1 52.992  7.158  7.842 
43 3 1 53.073  7.078 10.365 
44 3 1 53.465  7.193 12.838 
45 3 1 -3.321  7.099 15.381 
46 3 1 53.272  7.042 17.931 
47 3 1 53.301  7.220 20.502 
48 3 1 -3.435  7.366 23.133 
49 3 1 -3.269  7.344 25.703 
50 3 1 -3.215  7.260 28.261 
51 3 1 -3.406  7.211 30.832 
52 3 1 -3.521  7.132 33.433 
53 3 1 -3.458  7.100 35.944 
54 3 1 -3.214  6.912 38.468 
55 3 1 -3.426  6.730 41.084 
56 3 1 -3.420  6.734 43.693 
57 3 1 -3.321  6.811 46.310 
58 4 1  0.514  8.890 48.691 
59 4 1  0.611  8.961  2.563 
60 4 1  0.402  8.922  5.093 
61 4 1  0.301  8.858  7.660 
62 4 1  0.405  8.922 10.267 
63 4 1  0.307  9.054 12.774 
64 4 1  0.576  9.143 15.301 
65 4 1  0.571  9.189 17.866 
66 4 1  0.436  9.278 20.444 
67 4 1  0.330  9.332 22.983 
68 4 1  0.628  9.186 25.550 
69 4 1  0.513  9.005 28.125 
70 4 1  0.528  8.919 30.650 
71 4 1  0.710  8.994 33.195 
72 4 1  0.886  9.146 35.788 
73 4 1  0.986  9.118 38.347 
74 4 1  1.063  8.943 40.927 
75 4 1  1.044  8.923 43.462 
76 4 1  0.663  8.876 46.146 
77 5 1 52.809 11.875 47.551 
78 5 1 52.790 11.968  1.437 
79 5 1 53.070 11.867  4.044 
80 5 1 53.170 11.771  6.593 
81 5 1 52.957 11.942  9.070 
82 5 1 53.086 11.894 11.659 
83 5 1 53.195 11.843 14.226 
84 5 1 53.357 11.872 16.748 
85 5 1 53.188 11.911 19.302 
86 5 1 53.045 11.725 21.857 
87 5 1 -3.383 11.528 24.382 
88 5 1 -3.264 11.661 26.970 
89 5 1 -3.293 11.856 29.590 
90 5 1 -3.342 11.739 32.145 
91 5 1 -3.391 11.701 34.638 
92 5 1 -3.260 11.450 37.243 
93 5 1 -3.373 11.341 39.851 
94 5 1 53.179 11.442 42.443 
95 5 1 53.081 11.712 45.028 
96 6 1  0.552 13.943  1.182 
97 6 1  0.218 14.157  3.787 
98 6 1  0.316 14.278  6.422 
99 6 1  0.637 14.016  9.016 
100 6 1  0.787 13.949 11.563 
101 6 1  0.712 13.867 14.120 
102 6 1  0.323 13.833 16.639 
103 6 1  0.361 13.848 19.210 
104 6 1  0.316 13.807 21.679 
105 6 1  0.353 13.740 24.243 
106 6 1  0.534 13.652 26.869 
107 6 1  0.527 13.334 29.392 
108 6 1  0.543 13.371 32.000 
109 6 1  0.651 13.480 34.506 
110 6 1  0.428 13.636 37.113 
111 6 1  0.447 13.658 39.667 
112 6 1  0.445 13.541 42.194 
113 6 1  0.300 13.591 44.731 
114 6 1  0.487 13.729 47.248 
115 7 1 52.942 16.296 47.506 
116 7 1 52.862 16.231  1.411 
117 7 1 53.182 16.260  3.929 
118 7 1 52.915 16.390  6.525 
119 7 1 53.018 16.364  9.101 
120 7 1 -3.396 16.555 11.654 
121 7 1 -3.157 16.750 14.168 
122 7 1 -3.285 16.691 16.798 
123 7 1 53.133 16.404 19.332 
124 7 1 53.035 16.156 21.913 
125 7 1 52.965 16.157 24.469 
126 7 1 53.094 16.298 27.100 
127 7 1 53.156 16.228 29.692 
128 7 1 53.211 16.097 32.260 
129 7 1 52.977 16.060 34.798 
130 7 1 52.893 15.936 37.323 
131 7 1 52.742 16.109 39.914 
132 7 1 52.910 16.256 42.469 
133 7 1 52.924 16.370 44.995 
134 8 1  0.501 18.370 48.488 
135 8 1  0.647 18.658  2.360 
136 8 1  0.737 18.963  4.904 
137 8 1  0.589 19.029  7.532 
138 8 1  0.423 19.097 10.093 
139 8 1  0.377 19.017 12.652 
140 8 1  0.416 18.843 15.203 
141 8 1  0.389 18.734 17.758 
142 8 1  0.183 18.617 20.255 
143 8 1  0.315 18.470 22.834 
144 8 1  0.383 18.302 25.402 
145 8 1  0.496 18.313 27.975 
146 8 1  0.374 17.977 30.625 
147 8 1  0.188 17.963 33.203 
148 8 1  0.066 18.230 35.753 
149 8 1  0.240 18.476 38.318 
150 8 1  0.184 18.351 40.927 
151 8 1  0.128 18.181 43.492 
152 8 1  0.353 18.121 46.024 
153 9 1 53.183 20.897 48.846 
154 9 1 53.142 20.720  2.751 
155 9 1 53.008 20.599  5.328 
156 9 1 53.206 20.708  7.880 
157 9 1 53.199 20.949 10.389 
158 9 1 -3.582 21.107 12.971 
159 9 1 53.024 21.191 15.552 
160 9 1 52.914 21.197 18.077 
161 9 1 52.937 21.110 20.655 
162 9 1 52.849 21.095 23.231 
163 9 1 52.942 20.976 25.775 
164 9 1 52.591 20.921 28.332 
165 9 1 52.641 20.986 30.890 
166 9 1 52.768 20.969 33.449 
167 9 1 52.870 20.771 35.989 
168 9 1 52.924 20.740 38.593 
169 9 1 52.928 21.016 41.072 
170 9 1 52.999 20.977 43.713 
171 9 1 53.046 20.996 46.307 
172 10 1  0.442 23.432  1.194 
173 10 1  0.426 23.511  3.710 
174 10 1  0.529 23.536  6.314 
175 10 1  0.508 23.567  8.874 
176 10 1  0.477 23.408 11.425 
177 10 1  0.603 23.234 13.978 
178 10 1  0.510 23.301 16.579 
179 10 1  0.571 23.391 19.160 
180 10 1  0.535 23.251 21.726 
181 10 1  0.389 22.907 24.266 
182 10 1  0.286 22.630 26.843 
183 10 1  0.254 22.721 29.462 
184 10 1  0.018 22.791 31.998 
185 10 1  0.245 22.768 34.579 
186 10 1  0.337 22.822 37.178 
187 10 1  0.343 23.072 39.736 
188 10 1  0.408 23.166 42.284 
189 10 1  0.368 23.300 44.888 
190 10 1  0.517 23.327 47.351 
191 11 1 -3.496 25.559 48.652 
192 11 1 -3.298 25.442  2.543 
193 11 1 -3.410 25.376  5.116 
194 11 1 -3.362 25.544  7.627 
195 11 1 -3.194 25.795 10.182 
196 11 1 -3.202 26.049 12.697 
197 11 1 -3.009 25.908 15.282 
198 11 1 -3.351 25.731 17.853 
199 11 1 53.293 25.632 20.377 
200 11 1 53.126 25.751 22.931 
201 11 1 52.997 25.820 25.544 
202 11 1 52.799 25.875 28.178 
203 11 1 52.873 25.711 30.827 
204 11 1 52.878 25.548 33.358 
205 11 1 52.918 25.330 35.974 
206 11 1 53.007 25.255 38.495 
207 11 1 -3.460 25.345 40.912 
208 11 1 -3.413 25.545 43.483 
209 11 1 -3.431 25.656 46.075 
210 12 1  0.608 27.885  1.306 
211 12 1  0.631 28.113  3.845 
212 12 1  0.645 28.095  6.386 
213 12 1  0.496 28.123  8.931 
214 12 1  0.707 28.034 11.406 
215 12 1  0.723 27.906 13.984 
216 12 1  0.738 28.061 16.585 
217 12 1  0.882 28.115 19.165 
218 12 1  0.967 27.856 21.696 
219 12 1  0.770 27.638 24.184 
220 12 1  0.466 27.729 26.714 
221 12 1  0.332 27.779 29.309 
222 12 1  0.295 27.680 31.860 
223 12 1  0.282 27.654 34.420 
224 12 1  0.361 27.583 36.973 
225 12 1  0.257 27.605 39.596 
226 12 1  0.207 27.711 42.188 
227 12 1  0.387 27.761 44.742 
228 12 1  0.474 27.672 47.376 
229 13 1 52.852 30.282 48.684 
230 13 1 53.049 30.296  2.594 
231 13 1 -3.397 30.250  5.141 
232 13 1 -3.377 30.211  7.618 
233 13 1 -3.350 30.223 10.127 
234 13 1 53.260 30.201 12.698 
235 13 1 -3.320 30.257 15.285 
236 13 1 -3.552 30.364 17.916 
237 13 1 53.270 30.279 20.564 
238 13 1 -3.290 30.387 23.113 
239 13 1 -3.346 30.403 25.644 
240 13 1 -3.330 30.268 28.224 
241 13 1 53.105 30.192 30.743 
242 13 1 -3.364 30.109 33.317 
243 13 1 -3.464 30.263 35.799 
244 13 1 -3.394 30.267 38.401 
245 13 1 53.267 30.134 40.992 
246 13 1 53.090 29.975 43.533 
247 13 1 52.945 29.993 46.140 
248 14 1  0.604 32.614 48.977 
249 14 1  0.640 32.578  2.869 
250 14 1  0.596 32.560  5.422 
251 14 1  0.518 32.656  7.953 
252 14 1  0.671 32.708 10.531 
253 14 1  0.578 32.725 13.096 
254 14 1  0.603 32.598 15.703 
255 14 1  0.615 32.644 18.285 
256 14 1  0.502 32.575 20.912 
257 14 1  0.573 32.380 23.461 
258 14 1  0.761 32.510 25.954 
259 14 1  0.567 32.614 28.457 
260 14 1  0.491 32.717 30.969 
261 14 1  0.623 32.745 33.448 
262 14 1  0.660 32.479 36.081 
263 14 1  0.488 32.315 38.651 
264 14 1  0.153 32.248 41.215 
265 14 1  0.412 32.197 43.833 
266 14 1  0.645 32.333 46.462 
267 15 1 -3.406 34.622 48.643 
268 15 1 53.184 34.807  2.493 
269 15 1 -3.335 35.107  5.015 
270 15 1 53.264 35.072  7.634 
271 15 1 53.106 35.047 10.192 
272 15 1 53.283 35.111 12.798 
273 15 1 53.130 35.070 15.316 
274 15 1 53.246 34.948 17.963 
275 15 1 53.280 34.954 20.516 
276 15 1 53.290 35.107 23.075 
277 15 1 53.096 35.248 25.605 
278 15 1 53.028 35.204 28.119 
279 15 1 53.124 35.178 30.732 
280 15 1 53.202 35.023 33.293 
281 15 1 -3.368 34.825 35.780 
282 15 1 -3.527 35.053 38.364 
283 15 1 53.065 35.303 40.928 
284 15 1 53.075 35.165 43.528 
285 15 1 53.190 34.753 46.149 
286 16 1  0.713 37.028 48.480 
287 16 1  0.428 36.976  2.387 
288 16 1  0.606 36.961  5.042 
289 16 1  0.649 37.248  7.566 
290 16 1  0.469 37.181 10.176 
291 16 1  0.601 37.130 12.717 
292 16 1  0.584 37.104 15.205 
293 16 1  0.392 37.179 17.753 
294 16 1  0.291 37.373 20.329 
295 16 1  0.383 37.543 22.871 
296 16 1  0.207 37.427 25.384 
297 16 1  0.355 37.248 27.991 
298 16 1  0.692 37.245 30.599 
299 16 1  0.771 37.395 33.208 
300 16 1  0.649 37.588 35.721 
301 16 1  0.408 37.524 38.356 
302 16 1  0.434 37.549 40.851 
303 16 1  0.660 37.574 43.410 
304 16 1  0.924 37.320 45.936 
305 17 1 -3.313 39.566 48.570 
306 17 1 -3.198 39.800  2.391 
307 17 1 -3.201 39.900  4.983 
308 17 1 -3.251 39.712  7.588 
309 17 1 -3.331 39.599 10.177 
310 17 1 53.089 39.628 12.749 
311 17 1 -3.210 39.738 15.281 
312 17 1 -3.484 39.874 17.832 
313 17 1 53.010 39.843 20.391 
314 17 1 53.178 39.589 23.055 
315 17 1 53.028 39.709 25.575 
316 17 1 53.330 39.655 28.181 
317 17 1 -3.204 39.599 30.704 
318 17 1 -3.175 39.451 33.236 
319 17 1 -3.007 39.559 35.775 
320 17 1 -3.224 39.635 38.354 
321 17 1 53.205 39.734 40.907 
322 17 1 -3.522 39.648 43.495 
323 17 1 53.403 39.467 46.109 
324 18 1  0.866 41.944 48.467 
325 18 1  0.853 41.935  2.321 
326 18 1  0.694 41.714  4.924 
327 18 1  0.549 41.747  7.443 
328 18 1  0.576 41.760  9.973 
329 18 1  0.785 42.019 12.462 
330 18 1  0.853 42.092 15.084 
331 18 1  0.744 42.094 17.606 
332 18 1  0.580 41.919 20.237 
333 18 1  0.584 41.919 22.912 
334 18 1  0.816 42.241 25.404 
335 18 1  0.843 42.361 27.964 
336 18 1  0.804 42.401 30.577 
337 18 1  0.868 42.366 33.130 
338 18 1  0.987 42.214 35.718 
339 18 1  0.808 41.939 38.359 
340 18 1  0.750 41.962 40.841 
341 18 1  0.717 41.775 43.428 
342 18 1  0.829 41.856 45.904 
343 19 1 -3.171 44.434 48.566 
344 19 1 -3.191 44.445  2.413 
345 19 1 -3.374 44.426  4.932 
346 19 1 53.223 44.412  7.465 
347 19 1 53.264 44.418 10.070 
348 19 1 -3.440 44.483 12.642 
349 19 1 -3.301 44.432 15.279 
350 19 1 -3.255 44.420 17.853 
351 19 1 -3.155 44.435 20.473 
352 19 1 -3.185 44.364 23.063 
353 19 1 -3.401 44.354 25.584 
354 19 1 -3.106 44.198 28.092 
355 19 1 -2.949 44.136 30.679 
356 19 1 -3.162 44.241 33.142 
357 19 1 -3.184 44.104 35.788 
358 19 1 -3.155 44.086 38.389 
359 19 1 -3.430 44.214 40.942 
360 19 1 -3.313 44.436 43.415 
361 19 1 -3.198 44.490 46.007 
362 20 1  0.601 46.487 48.587 
363 20 1  0.756 46.554  2.478 
364 20 1  0.733 46.518  5.089 
365 20 1  0.808 46.593  7.662 
366 20 1  0.463 46.600 10.158 
367 20 1  0.376 46.407 12.726 
368 20 1  0.422 46.489 15.249 
369 20 1  0.644 46.478 17.752 
370 20 1  0.816 46.462 20.300 
371 20 1  0.773 46.471 22.914 
372 20 1  1.021 46.431 25.430 
373 20 1  1.247 46.499 27.979 
374 20 1  1.299 46.646 30.574 
375 20 1  0.937 46.636 33.105 
376 20 1  0.811 46.731 35.611 
377 20 1  0.967 46.663 38.243 
378 20 1  1.008 46.583 40.904 
379 20 1  0.702 46.529 43.447 
380 20 1  0.747 46.648 45.947 
381 21 1  4.566  1.939 48.653 
382 21 1  4.779  2.122  2.425 
383 21 1  5.054  2.129  4.949 
384 21 1  5.073  2.053  7.515 
385 21 1  4.936  1.851 10.109 
386 21 1  4.768  1.575 12.699 
387 21 1  4.639  1.653 15.256 
388 21 1  4.729  1.773 17.884 
389 21 1  4.943  1.892 20.535 
390 21 1  5.042  1.935 23.096 
391 21 1  5.146  1.850 25.625 
392 21 1  5.313  1.831 28.155 
393 21 1  4.974  1.947 30.645 
394 21 1  5.016  2.044 33.213 
395 21 1  4.999  2.084 35.821 
396 21 1  4.790  1.786 38.400 
397 21 1  4.783  1.717 40.961 
398 21 1  4.527  1.540 43.512 
399 21 1  4.552  1.658 46.126 
400 22 1  8.868  3.579 48.560 
401 22 1  8.809  3.553  2.415 
402 22 1  8.945  3.628  5.034 
403 22 1  9.009  3.872  7.583 
404 22 1  8.777  3.832 10.118 
405 22 1  8.654  3.555 12.615 
406 22 1  8.740  3.484 15.110 
407 22 1  8.954  3.676 17.734 
408 22 1  8.985  3.703 20.318 
409 22 1  8.987  3.626 22.902 
410 22 1  9.127  3.567 25.508 
411 22 1  9.267  3.664 28.027 
412 22 1  9.209  3.631 30.645 
413 22 1  9.146  3.731 33.146 
414 22 1  9.111  3.815 35.711 
415 22 1  8.638  3.740 38.272 
416 22 1  8.689  3.902 40.827 
417 22 1  8.895  3.900 43.421 
418 22 1  8.905  3.683 46.013 
419 23 1  4.881  6.490 48.538 
420 23 1  5.050  6.637  2.300 
421 23 1  5.078  6.596  4.821 
422 23 1  4.903  6.630  7.421 
423 23 1  4.892  6.696 10.009 
424 23 1  4.654  6.632 12.591 
425 23 1  4.354  6.542 15.190 
426 23 1  4.391  6.526 17.759 
427 23 1  4.485  6.502 20.334 
428 23 1  4.722  6.491 22.936 
429 23 1  4.587  6.482 25.507 
430 23 1  4.543  6.219 28.127 
431 23 1  4.804  6.138 30.689 
432 23 1  4.857  6.335 33.180 
433 23 1  4.906  6.539 35.713 
434 23 1  5.215  6.595 38.260 
435 23 1  4.947  6.504 40.861 
436 23 1  4.572  6.495 43.443 
437 23 1  4.740  6.529 45.992 
438 24 1  8.942  7.985 48.604 
439 24 1  9.125  8.284  2.444 
440 24 1  9.294  8.372  5.006 
441 24 1  9.274  8.458  7.492 
442 24 1  8.739  8.458 10.054 
443 24 1  8.849  8.407 12.552 
444 24 1  8.904  8.126 15.123 
445 24 1  8.640  8.216 17.709 
446 24 1  8.913  8.365 20.248 
447 24 1  8.628  8.332 22.866 
448 24 1  8.503  8.323 25.495 
449 24 1  8.517  8.266 28.098 
450 24 1  8.595  8.403 30.586 
451 24 1  8.850  8.511 33.082 
452 24 1  8.962  8.344 35.604 
453 24 1  8.994  8.172 38.238 
454 24 1  8.986  8.303 40.836 
455 24 1  8.937  8.300 43.422 
456 24 1  8.893  8.101 45.983 
457 25 1  4.570 11.059 48.380 
458 25 1  4.281 11.068  2.322 
459 25 1  4.229 11.101  4.955 
460 25 1  4.243 11.068  7.525 
461 25 1  4.522 11.066 10.114 
462 25 1  4.467 11.019 12.723 
463 25 1  4.570 10.903 15.339 
464 25 1  4.562 11.047 17.840 
465 25 1  4.501 11.063 20.470 
466 25 1  4.629 10.953 23.045 
467 25 1  4.632 10.724 25.621 
468 25 1  4.572 10.557 28.257 
469 25 1  4.612 10.782 30.771 
470 25 1  4.622 11.073 33.355 
471 25 1  4.686 11.402 35.899 
472 25 1  4.998 11.294 38.467 
473 25 1  4.815 11.161 40.958 
474 25 1  4.863 11.022 43.389 
475 25 1  4.815 10.866 45.940 
476 26 1  8.803 13.176 48.353 
477 26 1  8.751 13.057  2.340 
478 26 1  8.677 12.897  4.949 
479 26 1  8.415 12.790  7.495 
480 26 1  8.757 12.971  9.942 
481 26 1  8.702 13.057 12.467 
482 26 1  8.573 13.226 14.975 
483 26 1  8.596 13.123 17.622 
484 26 1  8.449 13.018 20.141 
485 26 1  8.460 12.979 22.712 
486 26 1  8.424 12.816 25.321 
487 26 1  8.065 12.736 27.890 
488 26 1  7.936 12.791 30.493 
489 26 1  8.293 12.873 33.087 
490 26 1  8.767 12.839 35.615 
491 26 1  8.803 12.895 38.184 
492 26 1  8.622 13.060 40.664 
493 26 1  8.708 13.119 43.256 
494 26 1  8.835 13.133 45.845 
495 27 1  4.580 15.624 46.195 
496 27 1  4.533 15.410 48.711 
497 27 1  4.789 15.586  2.560 
498 27 1  4.619 15.783  5.085 
499 27 1  4.670 15.819  7.640 
500 27 1  4.749 15.981 10.229 
501 27 1  4.762 16.019 12.762 
502 27 1  4.639 15.850 15.312 
503 27 1  4.588 15.794 17.891 
504 27 1  4.445 15.865 20.421 
505 27 1  4.420 15.856 22.972 
506 27 1  4.264 15.705 25.539 
507 27 1  4.404 15.609 28.141 
508 27 1  4.554 15.679 30.660 
509 27 1  4.726 15.765 33.280 
510 27 1  4.445 15.720 35.903 
511 27 1  4.614 15.709 38.480 
512 27 1  4.752 15.716 41.030 
513 27 1  4.854 15.704 43.647 
514 28 1  8.538 17.522  1.339 
515 28 1  8.637 17.666  3.896 
516 28 1  8.971 17.660  6.449 
517 28 1  9.050 17.613  9.041 
518 28 1  8.981 17.712 11.647 
519 28 1  8.563 17.756 14.183 
520 28 1  8.377 17.780 16.737 
521 28 1  8.442 17.839 19.305 
522 28 1  8.428 17.719 21.892 
523 28 1  8.441 17.525 24.398 
524 28 1  8.383 17.697 26.974 
525 28 1  8.341 17.749 29.523 
526 28 1  8.398 17.649 32.125 
527 28 1  8.605 17.617 34.726 
528 28 1  8.591 17.683 37.275 
529 28 1  8.717 17.708 39.782 
530 28 1  8.897 17.464 42.274 
531 28 1  8.806 17.509 44.865 
532 28 1  8.764 17.630 47.528 
533 29 1  4.593 20.166 48.659 
534 29 1  4.717 20.170  2.529 
535 29 1  4.815 20.295  5.099 
536 29 1  4.724 20.468  7.681 
537 29 1  4.525 20.863 10.214 
538 29 1  4.602 20.819 12.768 
539 29 1  4.652 20.653 15.305 
540 29 1  4.277 20.522 17.872 
541 29 1  4.515 20.475 20.449 
542 29 1  4.438 20.362 22.995 
543 29 1  4.293 20.168 25.625 
544 29 1  4.321 20.116 28.200 
545 29 1  4.162 20.164 30.815 
546 29 1  4.208 20.336 33.356 
547 29 1  4.342 20.349 35.881 
548 29 1  4.610 20.266 38.415 
549 29 1  4.485 20.108 41.018 
550 29 1  4.309 20.017 43.561 
551 29 1  4.367 20.162 46.114 
552 30 1  8.863 22.020  1.167 
553 30 1  8.905 22.299  3.820 
554 30 1  8.762 22.326  6.364 
555 30 1  8.566 22.206  8.982 
556 30 1  8.744 22.075 11.529 
557 30 1  9.115 22.282 14.135 
558 30 1  9.099 22.285 16.727 
559 30 1  8.970 22.276 19.307 
560 30 1  8.700 22.189 21.925 
561 30 1  8.667 22.209 24.466 
562 30 1  8.493 22.429 27.062 
563 30 1  8.210 22.481 29.554 
564 30 1  8.291 22.354 32.111 
565 30 1  8.126 22.210 34.643 
566 30 1  8.177 22.163 37.225 
567 30 1  8.460 22.221 39.790 
568 30 1  8.576 22.305 42.332 
569 30 1  8.898 22.285 44.826 
570 30 1  8.807 22.112 47.340 
571 31 1  4.518 25.124 48.486 
572 31 1  4.575 25.026  2.398 
573 31 1  4.777 24.930  4.949 
574 31 1  4.805 24.916  7.530 
575 31 1  4.882 25.061 10.132 
576 31 1  4.605 25.071 12.760 
577 31 1  4.477 25.137 15.304 
578 31 1  4.903 25.036 17.814 
579 31 1  5.031 24.874 20.363 
580 31 1  4.915 24.855 22.881 
581 31 1  4.501 24.952 25.482 
582 31 1  4.345 24.851 28.086 
583 31 1  4.496 24.680 30.683 
584 31 1  4.376 24.756 33.163 
585 31 1  4.188 24.972 35.689 
586 31 1  4.097 25.087 38.262 
587 31 1  4.253 24.997 40.927 
588 31 1  4.242 24.989 43.389 
589 31 1  4.257 24.948 45.987 
590 32 1  8.592 26.651 48.641 
591 32 1  8.400 26.754  2.467 
592 32 1  8.454 27.006  5.015 
593 32 1  8.548 27.038  7.629 
594 32 1  8.797 27.070 10.146 
595 32 1  8.582 26.895 12.713 
596 32 1  8.816 26.606 15.326 
597 32 1  8.954 26.663 17.913 
598 32 1  9.159 26.813 20.448 
599 32 1  8.968 26.968 22.976 
600 32 1  8.781 26.990 25.549 
601 32 1  8.601 27.026 28.161 
602 32 1  8.594 26.881 30.730 
603 32 1  8.379 26.859 33.319 
604 32 1  8.285 26.840 35.917 
605 32 1  8.355 26.867 38.458 
606 32 1  8.625 26.854 40.998 
607 32 1  8.567 26.715 43.607 
608 32 1  8.751 26.637 46.124 
609 33 1  4.840 30.069 48.499 
610 33 1  4.832 29.800  2.422 
611 33 1  4.704 29.553  4.965 
612 33 1  4.571 29.615  7.610 
613 33 1  4.578 29.754 10.152 
614 33 1  4.702 29.772 12.810 
615 33 1  4.793 29.751 15.403 
616 33 1  4.964 29.723 17.921 
617 33 1  5.208 29.749 20.445 
618 33 1  4.913 29.646 23.041 
619 33 1  4.597 29.536 25.600 
620 33 1  4.369 29.502 28.200 
621 33 1  4.294 29.573 30.812 
622 33 1  4.194 29.773 33.306 
623 33 1  4.382 29.777 35.874 
624 33 1  4.584 30.010 38.345 
625 33 1  4.488 30.097 40.913 
626 33 1  4.544 30.112 43.449 
627 33 1  4.787 30.121 45.973 
628 34 1  8.756 31.688 48.818 
629 34 1  8.933 31.661  2.717 
630 34 1  8.809 31.416  5.396 
631 34 1  8.832 31.380  7.956 
632 34 1  8.979 31.583 10.481 
633 34 1  8.818 31.586 13.067 
634 34 1  8.671 31.326 15.599 
635 34 1  8.757 31.242 18.166 
636 34 1  8.651 31.441 20.779 
637 34 1  9.072 31.524 23.322 
638 34 1  8.987 31.605 25.871 
639 34 1  8.754 31.791 28.336 
640 34 1  8.626 31.834 30.863 
641 34 1  8.315 31.584 33.452 
642 34 1  8.368 31.553 35.901 
643 34 1  8.371 31.454 38.503 
644 34 1  8.489 31.412 41.045 
645 34 1  8.423 31.491 43.669 
646 34 1  8.758 31.558 46.239 
647 35 1  4.599 34.350 48.827 
648 35 1  4.813 34.194  2.662 
649 35 1  4.814 34.198  5.184 
650 35 1  5.002 34.372  7.616 
651 35 1  4.602 34.531 10.123 
652 35 1  4.546 34.455 12.701 
653 35 1  4.443 34.435 15.238 
654 35 1  4.423 34.326 17.841 
655 35 1  4.827 34.338 20.310 
656 35 1  4.826 34.240 22.906 
657 35 1  4.996 34.135 25.547 
658 35 1  4.717 34.124 28.178 
659 35 1  4.511 34.258 30.683 
660 35 1  4.368 34.401 33.283 
661 35 1  4.375 34.565 35.904 
662 35 1  4.494 34.551 38.494 
663 35 1  4.532 34.533 41.100 
664 35 1  4.569 34.652 43.670 
665 35 1  4.781 34.423 46.287 
666 36 1  9.055 36.514 48.920 
667 36 1  9.240 36.383  2.721 
668 36 1  9.145 36.075  5.294 
669 36 1  9.015 35.898  7.824 
670 36 1  8.828 35.925 10.316 
671 36 1  8.662 35.999 12.839 
672 36 1  8.627 36.102 15.390 
673 36 1  8.516 36.100 17.996 
674 36 1  8.407 36.368 20.469 
675 36 1  8.754 36.391 23.104 
676 36 1  8.927 36.254 25.740 
677 36 1  8.694 36.330 28.250 
678 36 1  8.368 36.290 30.814 
679 36 1  8.563 36.147 33.374 
680 36 1  8.488 36.083 36.017 
681 36 1  8.366 36.197 38.585 
682 36 1  8.433 36.242 41.189 
683 36 1  8.701 36.515 43.790 
684 36 1  8.882 36.680 46.357 
685 37 1  4.773 38.802 48.670 
686 37 1  4.541 38.886  2.524 
687 37 1  4.518 39.136  5.041 
688 37 1  4.583 39.136  7.665 
689 37 1  4.915 39.063 10.208 
690 37 1  5.048 38.924 12.768 
691 37 1  4.698 38.958 15.343 
692 37 1  4.524 39.058 17.872 
693 37 1  4.638 39.173 20.444 
694 37 1  4.589 39.329 23.011 
695 37 1  4.521 39.298 25.530 
696 37 1  4.637 38.966 28.160 
697 37 1  4.766 38.900 30.743 
698 37 1  4.920 38.952 33.325 
699 37 1  4.790 39.097 35.858 
700 37 1  4.765 39.164 38.411 
701 37 1  4.680 39.098 40.937 
702 37 1  4.701 39.144 43.489 
703 37 1  4.777 39.026 46.130 
704 38 1  8.812 41.368 47.279 
705 38 1  8.679 41.395  1.250 
706 38 1  9.068 41.167  3.830 
707 38 1  9.019 40.781  6.408 
708 38 1  8.730 40.571  8.881 
709 38 1  8.817 40.602 11.467 
710 38 1  8.928 40.680 14.026 
711 38 1  8.885 40.802 16.535 
712 38 1  8.848 40.870 19.039 
713 38 1  8.962 40.999 21.587 
714 38 1  8.990 41.148 24.199 
715 38 1  8.755 41.044 26.795 
716 38 1  8.725 40.854 29.287 
717 38 1  8.559 40.962 31.911 
718 38 1  8.630 40.923 34.464 
719 38 1  8.800 40.907 37.048 
720 38 1  8.792 40.981 39.564 
721 38 1  9.004 41.133 42.143 
722 38 1  9.124 41.250 44.698 
723 39 1  4.925 43.686 48.546 
724 39 1  4.659 43.596  2.427 
725 39 1  4.785 43.644  5.013 
726 39 1  4.808 43.632  7.579 
727 39 1  4.938 43.497 10.164 
728 39 1  5.016 43.539 12.691 
729 39 1  4.891 43.580 15.241 
730 39 1  4.833 43.586 17.786 
731 39 1  4.752 43.870 20.328 
732 39 1  4.724 43.957 22.909 
733 39 1  4.645 43.915 25.482 
734 39 1  4.557 43.884 28.063 
735 39 1  4.815 43.828 30.682 
736 39 1  4.667 43.829 33.304 
737 39 1  4.612 43.712 35.834 
738 39 1  4.758 43.584 38.401 
739 39 1  4.849 43.416 40.909 
740 39 1  4.910 43.510 43.449 
741 39 1  4.886 43.792 45.949 
742 40 1  8.974 45.724 48.639 
743 40 1  8.972 45.771  2.420 
744 40 1  9.137 45.764  4.900 
745 40 1  9.053 45.325  7.479 
746 40 1  8.745 44.975 10.084 
747 40 1  8.868 45.113 12.626 
748 40 1  8.754 45.376 15.190 
749 40 1  8.646 45.615 17.716 
750 40 1  8.873 45.698 20.304 
751 40 1  8.989 45.595 22.892 
752 40 1  8.727 45.523 25.493 
753 40 1  8.730 45.558 28.042 
754 40 1  8.738 45.533 30.581 
755 40 1  8.958 45.428 33.176 
756 40 1  8.970 45.338 35.710 
757 40 1  8.868 45.287 38.283 
758 40 1  8.659 45.435 40.825 
759 40 1  8.785 45.637 43.475 
760 40 1  8.875 45.809 46.037 
761 41 1 12.731  0.987 48.433 
762 41 1 12.775  0.960  2.258 
763 41 1 12.887  1.061  4.728 
764 41 1 12.953  0.957  7.339 
765 41 1 12.958  0.862  9.878 
766 41 1 13.018  0.703 12.434 
767 41 1 12.628  0.776 14.916 
768 41 1 12.488  0.747 17.483 
769 41 1 12.648  0.659 20.024 
770 41 1 12.701  0.583 22.589 
771 41 1 12.753  0.674 25.196 
772 41 1 12.668  0.696 27.851 
773 41 1 12.903  0.577 30.495 
774 41 1 12.924  0.671 33.018 
775 41 1 13.024  0.701 35.571 
776 41 1 13.047  0.604 38.216 
777 41 1 12.702 47.145 40.781 
778 41 1 12.608  0.674 43.436 
779 41 1 12.982  0.897 45.901 
780 42 1 16.536  3.194 48.510 
781 42 1 16.886  2.925  2.455 
782 42 1 16.942  2.714  5.023 
783 42 1 16.827  2.783  7.564 
784 42 1 17.267  2.736 10.043 
785 42 1 17.059  2.641 12.551 
786 42 1 16.771  2.701 15.091 
787 42 1 16.772  2.919 17.685 
788 42 1 17.152  2.961 20.314 
789 42 1 17.160  2.923 22.909 
790 42 1 16.846  2.820 25.465 
791 42 1 16.954  2.697 27.961 
792 42 1 17.019  2.560 30.518 
793 42 1 16.924  2.769 33.017 
794 42 1 17.146  2.707 35.711 
795 42 1 17.234  2.807 38.203 
796 42 1 17.163  2.790 40.769 
797 42 1 17.164  2.928 43.425 
798 42 1 16.743  3.151 45.971 
799 43 1 12.898  5.797 48.428 
800 43 1 12.772  5.761  2.341 
801 43 1 12.798  5.632  4.843 
802 43 1 12.980  5.616  7.393 
803 43 1 12.963  5.502  9.917 
804 43 1 13.114  5.422 12.456 
805 43 1 12.943  5.383 15.072 
806 43 1 12.688  5.483 17.694 
807 43 1 12.818  5.566 20.299 
808 43 1 12.887  5.667 22.791 
809 43 1 13.016  5.510 25.467 
810 43 1 13.054  5.455 28.019 
811 43 1 13.085  5.560 30.586 
812 43 1 13.506  5.649 33.144 
813 43 1 13.208  5.721 35.658 
814 43 1 12.945  5.931 38.206 
815 43 1 12.868  5.818 40.851 
816 43 1 13.207  5.594 43.368 
817 43 1 13.067  5.581 45.900 
818 44 1 16.812  7.541 48.502 
819 44 1 16.639  7.344  2.483 
820 44 1 16.717  7.358  5.017 
821 44 1 16.793  7.447  7.560 
822 44 1 16.650  7.619 10.067 
823 44 1 16.627  7.670 12.627 
824 44 1 16.813  7.574 15.163 
825 44 1 16.928  7.478 17.822 
826 44 1 16.879  7.598 20.327 
827 44 1 16.786  7.702 22.819 
828 44 1 16.793  7.639 25.444 
829 44 1 16.917  7.515 27.982 
830 44 1 16.996  7.357 30.577 
831 44 1 17.337  7.366 33.074 
832 44 1 17.120  7.318 35.623 
833 44 1 16.769  7.265 38.227 
834 44 1 16.670  7.487 40.787 
835 44 1 16.774  7.690 43.327 
836 44 1 16.928  7.643 45.865 
837 45 1 12.848 10.118 48.221 
838 45 1 12.918 10.227  2.187 
839 45 1 12.976 10.130  4.853 
840 45 1 12.866 10.006  7.396 
841 45 1 12.584  9.973  9.884 
842 45 1 12.746 10.094 12.485 
843 45 1 12.670 10.202 15.049 
844 45 1 12.614 10.186 17.668 
845 45 1 12.717 10.317 20.214 
846 45 1 12.585 10.463 22.695 
847 45 1 12.415 10.292 25.283 
848 45 1 12.498  9.902 27.856 
849 45 1 12.527  9.773 30.358 
850 45 1 12.804 10.082 32.871 
851 45 1 12.604 10.524 35.417 
852 45 1 12.667 10.613 38.004 
853 45 1 12.847 10.551 40.656 
854 45 1 12.626 10.345 43.224 
855 45 1 12.697 10.085 45.724 
856 46 1 16.733 12.105 48.389 
857 46 1 17.013 12.225  2.241 
858 46 1 17.394 12.212  4.776 
859 46 1 17.191 12.348  7.302 
860 46 1 16.940 12.264  9.937 
861 46 1 16.742 12.167 12.516 
862 46 1 16.661 12.056 15.160 
863 46 1 16.618 12.170 17.742 
864 46 1 16.406 12.241 20.337 
865 46 1 16.694 12.229 22.873 
866 46 1 16.983 12.239 25.370 
867 46 1 16.956 12.293 27.882 
868 46 1 16.603 12.054 30.422 
869 46 1 16.747 11.994 32.967 
870 46 1 16.725 12.240 35.515 
871 46 1 16.591 12.379 38.087 
872 46 1 16.846 12.355 40.641 
873 46 1 16.977 12.264 43.212 
874 46 1 16.799 11.999 45.837 
875 47 1 13.069 14.994 48.360 
876 47 1 12.888 14.985  2.256 
877 47 1 12.889 14.746  4.816 
878 47 1 12.771 14.701  7.323 
879 47 1 12.782 14.762  9.871 
880 47 1 12.778 14.554 12.530 
881 47 1 12.534 14.598 15.132 
882 47 1 12.574 14.662 17.727 
883 47 1 12.567 14.886 20.289 
884 47 1 12.600 15.071 22.942 
885 47 1 12.389 15.005 25.533 
886 47 1 12.716 15.045 28.081 
887 47 1 12.929 15.041 30.625 
888 47 1 12.727 15.089 33.176 
889 47 1 12.508 15.217 35.687 
890 47 1 12.640 15.015 38.294 
891 47 1 12.616 14.841 40.806 
892 47 1 12.764 14.698 43.373 
893 47 1 12.795 14.716 45.923 
894 48 1 16.773 17.014  1.180 
895 48 1 16.875 17.083  3.677 
896 48 1 16.873 17.003  6.205 
897 48 1 16.802 16.979  8.744 
898 48 1 16.618 17.026 11.400 
899 48 1 16.640 16.964 13.878 
900 48 1 16.523 17.126 16.492 
901 48 1 16.675 17.217 19.113 
902 48 1 16.511 16.960 21.586 
903 48 1 16.999 16.680 24.084 
904 48 1 17.022 16.710 26.710 
905 48 1 16.974 16.855 29.319 
906 48 1 16.832 16.953 31.871 
907 48 1 16.856 17.031 34.527 
908 48 1 16.621 16.838 37.059 
909 48 1 16.489 16.693 39.629 
910 48 1 16.803 16.605 42.173 
911 48 1 16.704 16.561 44.733 
912 48 1 16.877 16.889 47.348 
913 49 1 12.666 19.570 48.552 
914 49 1 12.640 19.642  2.365 
915 49 1 12.755 19.850  4.903 
916 49 1 12.816 19.793  7.472 
917 49 1 12.770 19.596 10.006 
918 49 1 12.637 19.345 12.578 
919 49 1 12.768 19.363 15.174 
920 49 1 12.991 19.470 17.685 
921 49 1 12.858 19.471 20.290 
922 49 1 12.678 19.395 22.960 
923 49 1 12.583 19.421 25.497 
924 49 1 12.565 19.511 28.068 
925 49 1 12.670 19.462 30.672 
926 49 1 12.518 19.446 33.275 
927 49 1 12.513 19.551 35.826 
928 49 1 12.647 19.650 38.366 
929 49 1 12.640 19.745 40.888 
930 49 1 12.658 19.690 43.483 
931 49 1 12.486 19.571 46.061 
932 50 1 17.189 21.506 48.422 
933 50 1 17.026 21.584  2.393 
934 50 1 16.896 21.624  5.055 
935 50 1 16.845 21.522  7.582 
936 50 1 16.747 21.442 10.069 
937 50 1 16.736 21.450 12.614 
938 50 1 16.978 21.546 15.269 
939 50 1 17.165 21.698 17.768 
940 50 1 17.094 21.777 20.292 
941 50 1 16.931 21.607 22.820 
942 50 1 16.784 21.318 25.430 
943 50 1 16.839 21.280 28.001 
944 50 1 16.532 21.285 30.543 
945 50 1 16.421 21.121 33.126 
946 50 1 16.542 21.217 35.709 
947 50 1 16.524 21.325 38.181 
948 50 1 16.460 21.449 40.821 
949 50 1 16.500 21.675 43.363 
950 50 1 16.966 21.528 45.914 
951 51 1 13.010 24.167 48.566 
952 51 1 12.966 24.345  2.446 
953 51 1 12.783 24.324  5.031 
954 51 1 13.018 24.116  7.644 
955 51 1 13.029 23.998 10.180 
956 51 1 12.684 23.920 12.710 
957 51 1 12.905 23.776 15.326 
958 51 1 13.292 23.919 17.854 
959 51 1 12.986 23.820 20.381 
960 51 1 12.843 23.747 22.948 
961 51 1 12.764 23.673 25.529 
962 51 1 12.442 23.753 28.085 
963 51 1 12.419 24.034 30.549 
964 51 1 12.404 23.894 33.265 
965 51 1 12.516 24.142 35.789 
966 51 1 12.473 24.433 38.333 
967 51 1 12.434 24.440 40.900 
968 51 1 12.841 24.373 43.363 